================================================================================
| EXCITING OXYGEN started                                                      =
| version hash id: db1af6655483acc0d004c84381c13b590f8da658                    =
|                                                                              =
| compiler: ifort (IFORT) 19.0.0.117 20180804                                  =
|                                                                              =
|                                                                              =
| Date (DD-MM-YYYY) : 06-04-2022                                               =
| Time (hh:mm:ss)   : 12:48:59                                                 =
|                                                                              =
| All units are atomic (Hartree, Bohr, etc.)                                   =
================================================================================
 
********************************************************************************
* Ground-state run starting from atomic densities                              *
********************************************************************************
 
++++++++++++++++++++++++++++++++++++++++++++++++++++++++++++++++++++++++++++++++
+ Starting initialization                                                      +
++++++++++++++++++++++++++++++++++++++++++++++++++++++++++++++++++++++++++++++++
 
 Lattice vectors (cartesian) :
      0.0000000000      4.1196029535      4.1196029535
      4.1196029535      0.0000000000      4.1196029535
      4.1196029535      4.1196029535      0.0000000000
 
 Reciprocal lattice vectors (cartesian) :
     -0.7625959805      0.7625959805      0.7625959805
      0.7625959805     -0.7625959805      0.7625959805
      0.7625959805      0.7625959805     -0.7625959805
 
 Unit cell volume                           :     139.8286221400
 Brillouin zone volume                      :       1.7739587907
 
 Automatic determination of muffin-tin radii :
     global rmt scale                       :       0.9500000000
 
 Species :    1 (Si)
     parameters loaded from                 :    Si.xml
     name                                   :    silicon
     nuclear charge                         :     -14.00000000
     electronic charge                      :      14.00000000
     atomic mass                            :   51196.73454000
     muffin-tin radius                      :       1.79880000
     # of radial points in muffin-tin       :     300
 
     atomic positions (lattice) :
       1 :   0.00000000  0.00000000  0.00000000
 
 Species :    2 (C)
     parameters loaded from                 :    C.xml
     name                                   :    carbon
     nuclear charge                         :      -6.00000000
     electronic charge                      :       6.00000000
     atomic mass                            :   21894.16673000
     muffin-tin radius                      :       1.59040000
     # of radial points in muffin-tin       :     250
 
     atomic positions (lattice) :
       1 :   0.25000000  0.25000000  0.25000000
 
 Total number of atoms per unit cell        :       2
 
 Spin treatment                             :    spin-unpolarised
 
 Number of Bravais lattice symmetries       :      48
 Number of crystal symmetries               :      24
 
 k-point grid                               :       4    4    4
 Total number of k-points                   :      10
 k-point set is reduced with crystal symmetries
 
 R^MT_min * |G+k|_max (rgkmax)              :       8.00000000
 Species with R^MT_min                      :       2 (C)
 Maximum |G+k| for APW functions            :       5.03018109
 Maximum |G| for potential and density      :      12.00000000
 
 G-vector grid sizes                        :      24    24    24
 Total number of G-vectors                  :    4015
 
 Maximum angular momentum used for
     APW functions                          :       8
     computing H and O matrix elements      :       8
     potential and density                  :       8
     inner part of muffin-tin               :       2
 
 Total nuclear charge                       :     -20.00000000
 Total electronic charge                    :      20.00000000
 Total core charge                          :      12.00000000
 Total valence charge                       :       8.00000000
 
 Number of empty states                     :      10
 Total number of valence states             :      15
 
 Maximum Hamiltonian size                   :     316
 Maximum number of plane-waves              :     308
 Total number of local-orbitals             :       8
 
 Exchange-correlation type                  :       2
     Perdew-Zunger, Phys. Rev. B 23, 5048 (1981)
 
 Smearing scheme                            :    Gaussian
 Smearing width                             :       0.00367500
 
 Using multisecant Broyden potential mixing
 
++++++++++++++++++++++++++++++++++++++++++++++++++++++++++++++++++++++++++++++++
+ Ending initialization                                                        +
++++++++++++++++++++++++++++++++++++++++++++++++++++++++++++++++++++++++++++++++
 
********************************************************************************
* Groundstate module started                                                   *
********************************************************************************
 Output level for this task is set to normal
 
++++++++++++++++++++++++++++++++++++++++++++++++++++++++++++++++++++++++++++++++
+ Self-consistent loop started                                                 +
++++++++++++++++++++++++++++++++++++++++++++++++++++++++++++++++++++++++++++++++
 Density and potential initialised from atomic data
 
 
++++++++++++++++++++++++++++++++++++++++++++++++++++++++++++++++++++++++++++++++
+ SCF iteration number :    1                                                  +
++++++++++++++++++++++++++++++++++++++++++++++++++++++++++++++++++++++++++++++++
 Total energy                               :      -327.48431020
 _______________________________________________________________
 Fermi energy                               :         0.28230847
 Kinetic energy                             :       326.71904201
 Coulomb energy                             :      -629.04688953
 Exchange energy                            :       -23.67346389
 Correlation energy                         :        -1.48299879
 
 DOS at Fermi energy (states/Ha/cell)       :         0.00000000
 
 Electron charges :
     core                                   :        12.00000000
     core leakage                           :         0.01095283
     valence                                :         8.00000000
     interstitial                           :         3.44618309
     charge in muffin-tin spheres :
                  atom     1    Si          :        11.16731294
                  atom     2     C          :         5.38650397
     total charge in muffin-tins            :        16.55381691
     total charge                           :        20.00000000
 
 Estimated fundamental gap                  :         0.13458433
        valence-band maximum at    1      0.0000  0.0000  0.0000
     conduction-band minimum at    8      0.5000  0.5000  0.0000
 
 Wall time (seconds)                        :         1.29
 
++++++++++++++++++++++++++++++++++++++++++++++++++++++++++++++++++++++++++++++++
+ SCF iteration number :    2                                                  +
++++++++++++++++++++++++++++++++++++++++++++++++++++++++++++++++++++++++++++++++
 Total energy                               :      -327.24587486
 _______________________________________________________________
 Fermi energy                               :         0.30432764
 Kinetic energy                             :       326.88355278
 Coulomb energy                             :      -629.04979228
 Exchange energy                            :       -23.60055056
 Correlation energy                         :        -1.47908480
 
 DOS at Fermi energy (states/Ha/cell)       :         0.00000000
 
 Electron charges :
     core                                   :        12.00000000
     core leakage                           :         0.01068336
     valence                                :         8.00000000
     interstitial                           :         3.63233759
     charge in muffin-tin spheres :
                  atom     1    Si          :        11.29963640
                  atom     2     C          :         5.06802602
     total charge in muffin-tins            :        16.36766241
     total charge                           :        20.00000000
 
 Estimated fundamental gap                  :         0.08548088
        valence-band maximum at    1      0.0000  0.0000  0.0000
     conduction-band minimum at    8      0.5000  0.5000  0.0000
 
 Wall time (seconds)                        :         2.16
 
 RMS change in effective potential (target) :  0.511456E-01  ( 0.100000E-05)
 Absolute change in total energy   (target) :  0.238435      ( 0.100000E-05)
 Charge distance                   (target) :  0.336922E-01  ( 0.100000E-04)
 
++++++++++++++++++++++++++++++++++++++++++++++++++++++++++++++++++++++++++++++++
+ SCF iteration number :    3                                                  +
++++++++++++++++++++++++++++++++++++++++++++++++++++++++++++++++++++++++++++++++
 Total energy                               :      -327.10265791
 _______________________________________________________________
 Fermi energy                               :         0.31385435
 Kinetic energy                             :       326.95892788
 Coulomb energy                             :      -629.01435285
 Exchange energy                            :       -23.56979263
 Correlation energy                         :        -1.47744031
 
 DOS at Fermi energy (states/Ha/cell)       :         0.00000000
 
 Electron charges :
     core                                   :        12.00000000
     core leakage                           :         0.01059770
     valence                                :         8.00000000
     interstitial                           :         3.71534892
     charge in muffin-tin spheres :
                  atom     1    Si          :        11.35489189
                  atom     2     C          :         4.92975919
     total charge in muffin-tins            :        16.28465108
     total charge                           :        20.00000000
 
 Estimated fundamental gap                  :         0.06353324
        valence-band maximum at    1      0.0000  0.0000  0.0000
     conduction-band minimum at    8      0.5000  0.5000  0.0000
 
 Wall time (seconds)                        :         3.04
 
 RMS change in effective potential (target) :  0.195083E-01  ( 0.100000E-05)
 Absolute change in total energy   (target) :  0.143217      ( 0.100000E-05)
 Charge distance                   (target) :  0.148788E-01  ( 0.100000E-04)
 
++++++++++++++++++++++++++++++++++++++++++++++++++++++++++++++++++++++++++++++++
+ SCF iteration number :    4                                                  +
++++++++++++++++++++++++++++++++++++++++++++++++++++++++++++++++++++++++++++++++
 Total energy                               :      -326.81390043
 _______________________________________________________________
 Fermi energy                               :         0.32060975
 Kinetic energy                             :       327.11257677
 Coulomb energy                             :      -628.90769025
 Exchange energy                            :       -23.54268795
 Correlation energy                         :        -1.47609900
 
 DOS at Fermi energy (states/Ha/cell)       :         0.00000000
 
 Electron charges :
     core                                   :        12.00000000
     core leakage                           :         0.01060267
     valence                                :         8.00000000
     interstitial                           :         3.78547392
     charge in muffin-tin spheres :
                  atom     1    Si          :        11.37562170
                  atom     2     C          :         4.83890438
     total charge in muffin-tins            :        16.21452608
     total charge                           :        20.00000000
 
 Estimated fundamental gap                  :         0.04480616
        valence-band maximum at    1      0.0000  0.0000  0.0000
     conduction-band minimum at    8      0.5000  0.5000  0.0000
 
 Wall time (seconds)                        :         3.91
 
 RMS change in effective potential (target) :  0.378395E-02  ( 0.100000E-05)
 Absolute change in total energy   (target) :  0.288757      ( 0.100000E-05)
 Charge distance                   (target) :  0.102832E-01  ( 0.100000E-04)
 
++++++++++++++++++++++++++++++++++++++++++++++++++++++++++++++++++++++++++++++++
+ SCF iteration number :    5                                                  +
++++++++++++++++++++++++++++++++++++++++++++++++++++++++++++++++++++++++++++++++
 Total energy                               :      -326.88112274
 _______________________________________________________________
 Fermi energy                               :         0.31921751
 Kinetic energy                             :       327.07250808
 Coulomb energy                             :      -628.93138468
 Exchange energy                            :       -23.54600755
 Correlation energy                         :        -1.47623860
 
 DOS at Fermi energy (states/Ha/cell)       :         0.00000000
 
 Electron charges :
     core                                   :        12.00000000
     core leakage                           :         0.01059138
     valence                                :         8.00000000
     interstitial                           :         3.77791644
     charge in muffin-tin spheres :
                  atom     1    Si          :        11.37457626
                  atom     2     C          :         4.84750730
     total charge in muffin-tins            :        16.22208356
     total charge                           :        20.00000000
 
 Estimated fundamental gap                  :         0.04575435
        valence-band maximum at    1      0.0000  0.0000  0.0000
     conduction-band minimum at    8      0.5000  0.5000  0.0000
 
 Wall time (seconds)                        :         4.80
 
 RMS change in effective potential (target) :  0.112857E-02  ( 0.100000E-05)
 Absolute change in total energy   (target) :  0.672223E-01  ( 0.100000E-05)
 Charge distance                   (target) :  0.887368E-03  ( 0.100000E-04)
 
++++++++++++++++++++++++++++++++++++++++++++++++++++++++++++++++++++++++++++++++
+ SCF iteration number :    6                                                  +
++++++++++++++++++++++++++++++++++++++++++++++++++++++++++++++++++++++++++++++++
 Total energy                               :      -326.86481918
 _______________________________________________________________
 Fermi energy                               :         0.31905544
 Kinetic energy                             :       327.08036183
 Coulomb energy                             :      -628.92282736
 Exchange energy                            :       -23.54609163
 Correlation energy                         :        -1.47626203
 
 DOS at Fermi energy (states/Ha/cell)       :         0.00000000
 
 Electron charges :
     core                                   :        12.00000000
     core leakage                           :         0.01060159
     valence                                :         8.00000000
     interstitial                           :         3.77636822
     charge in muffin-tin spheres :
                  atom     1    Si          :        11.37239740
                  atom     2     C          :         4.85123438
     total charge in muffin-tins            :        16.22363178
     total charge                           :        20.00000000
 
 Estimated fundamental gap                  :         0.04629944
        valence-band maximum at    1      0.0000  0.0000  0.0000
     conduction-band minimum at    8      0.5000  0.5000  0.0000
 
 Wall time (seconds)                        :         5.71
 
 RMS change in effective potential (target) :  0.938963E-04  ( 0.100000E-05)
 Absolute change in total energy   (target) :  0.163036E-01  ( 0.100000E-05)
 Charge distance                   (target) :  0.434984E-03  ( 0.100000E-04)
 
++++++++++++++++++++++++++++++++++++++++++++++++++++++++++++++++++++++++++++++++
+ SCF iteration number :    7                                                  +
++++++++++++++++++++++++++++++++++++++++++++++++++++++++++++++++++++++++++++++++
 Total energy                               :      -326.86691112
 _______________________________________________________________
 Fermi energy                               :         0.31902632
 Kinetic energy                             :       327.08012219
 Coulomb energy                             :      -628.92450797
 Exchange energy                            :       -23.54625752
 Correlation energy                         :        -1.47626782
 
 DOS at Fermi energy (states/Ha/cell)       :         0.00000000
 
 Electron charges :
     core                                   :        12.00000000
     core leakage                           :         0.01060075
     valence                                :         8.00000000
     interstitial                           :         3.77615550
     charge in muffin-tin spheres :
                  atom     1    Si          :        11.37223671
                  atom     2     C          :         4.85160779
     total charge in muffin-tins            :        16.22384450
     total charge                           :        20.00000000
 
 Estimated fundamental gap                  :         0.04635592
        valence-band maximum at    1      0.0000  0.0000  0.0000
     conduction-band minimum at    8      0.5000  0.5000  0.0000
 
 Wall time (seconds)                        :         6.59
 
 RMS change in effective potential (target) :  0.270534E-04  ( 0.100000E-05)
 Absolute change in total energy   (target) :  0.209194E-02  ( 0.100000E-05)
 Charge distance                   (target) :  0.442265E-04  ( 0.100000E-04)
 
++++++++++++++++++++++++++++++++++++++++++++++++++++++++++++++++++++++++++++++++
+ SCF iteration number :    8                                                  +
++++++++++++++++++++++++++++++++++++++++++++++++++++++++++++++++++++++++++++++++
 Total energy                               :      -326.86706688
 _______________________________________________________________
 Fermi energy                               :         0.31903062
 Kinetic energy                             :       327.07987908
 Coulomb energy                             :      -628.92444272
 Exchange energy                            :       -23.54623648
 Correlation energy                         :        -1.47626677
 
 DOS at Fermi energy (states/Ha/cell)       :         0.00000000
 
 Electron charges :
     core                                   :        12.00000000
     core leakage                           :         0.01060065
     valence                                :         8.00000000
     interstitial                           :         3.77620118
     charge in muffin-tin spheres :
                  atom     1    Si          :        11.37230638
                  atom     2     C          :         4.85149244
     total charge in muffin-tins            :        16.22379882
     total charge                           :        20.00000000
 
 Estimated fundamental gap                  :         0.04633990
        valence-band maximum at    1      0.0000  0.0000  0.0000
     conduction-band minimum at    8      0.5000  0.5000  0.0000
 
 Wall time (seconds)                        :         7.47
 
 RMS change in effective potential (target) :  0.900947E-06  ( 0.100000E-05)
 Absolute change in total energy   (target) :  0.155761E-03  ( 0.100000E-05)
 Charge distance                   (target) :  0.133114E-04  ( 0.100000E-04)
 
++++++++++++++++++++++++++++++++++++++++++++++++++++++++++++++++++++++++++++++++
+ SCF iteration number :    9                                                  +
++++++++++++++++++++++++++++++++++++++++++++++++++++++++++++++++++++++++++++++++
 Total energy                               :      -326.86704420
 _______________________________________________________________
 Fermi energy                               :         0.31903083
 Kinetic energy                             :       327.07990223
 Coulomb energy                             :      -628.92444333
 Exchange energy                            :       -23.54623634
 Correlation energy                         :        -1.47626676
 
 DOS at Fermi energy (states/Ha/cell)       :         0.00000000
 
 Electron charges :
     core                                   :        12.00000000
     core leakage                           :         0.01060066
     valence                                :         8.00000000
     interstitial                           :         3.77620217
     charge in muffin-tin spheres :
                  atom     1    Si          :        11.37230393
                  atom     2     C          :         4.85149390
     total charge in muffin-tins            :        16.22379783
     total charge                           :        20.00000000
 
 Estimated fundamental gap                  :         0.04633963
        valence-band maximum at    1      0.0000  0.0000  0.0000
     conduction-band minimum at    8      0.5000  0.5000  0.0000
 
 Wall time (seconds)                        :         8.34
 
 RMS change in effective potential (target) :  0.191421E-06  ( 0.100000E-05)
 Absolute change in total energy   (target) :  0.226816E-04  ( 0.100000E-05)
 Charge distance                   (target) :  0.360435E-06  ( 0.100000E-04)
 
++++++++++++++++++++++++++++++++++++++++++++++++++++++++++++++++++++++++++++++++
+ SCF iteration number :   10                                                  +
++++++++++++++++++++++++++++++++++++++++++++++++++++++++++++++++++++++++++++++++
 Total energy                               :      -326.86704690
 _______________________________________________________________
 Fermi energy                               :         0.31903075
 Kinetic energy                             :       327.07989963
 Coulomb energy                             :      -628.92444326
 Exchange energy                            :       -23.54623651
 Correlation energy                         :        -1.47626677
 
 DOS at Fermi energy (states/Ha/cell)       :         0.00000000
 
 Electron charges :
     core                                   :        12.00000000
     core leakage                           :         0.01060066
     valence                                :         8.00000000
     interstitial                           :         3.77620157
     charge in muffin-tin spheres :
                  atom     1    Si          :        11.37230378
                  atom     2     C          :         4.85149465
     total charge in muffin-tins            :        16.22379843
     total charge                           :        20.00000000
 
 Estimated fundamental gap                  :         0.04633977
        valence-band maximum at    1      0.0000  0.0000  0.0000
     conduction-band minimum at    8      0.5000  0.5000  0.0000
 
 Wall time (seconds)                        :         9.22
 
 RMS change in effective potential (target) :  0.555357E-08  ( 0.100000E-05)
 Absolute change in total energy   (target) :  0.270088E-05  ( 0.100000E-05)
 Charge distance                   (target) :  0.843226E-07  ( 0.100000E-04)
 
++++++++++++++++++++++++++++++++++++++++++++++++++++++++++++++++++++++++++++++++
+ SCF iteration number :   11                                                  +
++++++++++++++++++++++++++++++++++++++++++++++++++++++++++++++++++++++++++++++++
 Total energy                               :      -326.86704683
 _______________________________________________________________
 Fermi energy                               :         0.31903075
 Kinetic energy                             :       327.07989973
 Coulomb energy                             :      -628.92444328
 Exchange energy                            :       -23.54623651
 Correlation energy                         :        -1.47626677
 
 DOS at Fermi energy (states/Ha/cell)       :         0.00000000
 
 Electron charges :
     core                                   :        12.00000000
     core leakage                           :         0.01060066
     valence                                :         8.00000000
     interstitial                           :         3.77620158
     charge in muffin-tin spheres :
                  atom     1    Si          :        11.37230378
                  atom     2     C          :         4.85149464
     total charge in muffin-tins            :        16.22379842
     total charge                           :        20.00000000
 
 Estimated fundamental gap                  :         0.04633976
        valence-band maximum at    1      0.0000  0.0000  0.0000
     conduction-band minimum at    8      0.5000  0.5000  0.0000
 
 Wall time (seconds)                        :        10.11
 
 RMS change in effective potential (target) :  0.498805E-09  ( 0.100000E-05)
 Absolute change in total energy   (target) :  0.689683E-07  ( 0.100000E-05)
 Charge distance                   (target) :  0.214067E-08  ( 0.100000E-04)
 
++++++++++++++++++++++++++++++++++++++++++++++++++++++++++++++++++++++++++++++++
+ SCF iteration number :   12                                                  +
++++++++++++++++++++++++++++++++++++++++++++++++++++++++++++++++++++++++++++++++
 Total energy                               :      -326.86704684
 _______________________________________________________________
 Fermi energy                               :         0.31903075
 Kinetic energy                             :       327.07989972
 Coulomb energy                             :      -628.92444329
 Exchange energy                            :       -23.54623651
 Correlation energy                         :        -1.47626677
 
 DOS at Fermi energy (states/Ha/cell)       :         0.00000000
 
 Electron charges :
     core                                   :        12.00000000
     core leakage                           :         0.01060066
     valence                                :         8.00000000
     interstitial                           :         3.77620158
     charge in muffin-tin spheres :
                  atom     1    Si          :        11.37230378
                  atom     2     C          :         4.85149463
     total charge in muffin-tins            :        16.22379842
     total charge                           :        20.00000000
 
 Estimated fundamental gap                  :         0.04633976
        valence-band maximum at    1      0.0000  0.0000  0.0000
     conduction-band minimum at    8      0.5000  0.5000  0.0000
 
 Wall time (seconds)                        :        10.99
 
 RMS change in effective potential (target) :  0.130294E-10  ( 0.100000E-05)
 Absolute change in total energy   (target) :  0.484147E-08  ( 0.100000E-05)
 Charge distance                   (target) :  0.194211E-09  ( 0.100000E-04)
                                                                                
++++++++++++++++++++++++++++++++++++++++++++++++++++++++++++++++++++++++++++++++
| Convergency criteria checked for the last 2 iterations                       +
| Convergence targets achieved. Performing final SCF iteration                 +
++++++++++++++++++++++++++++++++++++++++++++++++++++++++++++++++++++++++++++++++
 Total energy                               :      -326.86704684
 _______________________________________________________________
 Fermi energy                               :         0.31903075
 Kinetic energy                             :       327.07989972
 Coulomb energy                             :      -628.92444329
 Exchange energy                            :       -23.54623651
 Correlation energy                         :        -1.47626677
 
 DOS at Fermi energy (states/Ha/cell)       :         0.00000000
 
 Electron charges :
     core                                   :        12.00000000
     core leakage                           :         0.01060066
     valence                                :         8.00000000
     interstitial                           :         3.77620158
     charge in muffin-tin spheres :
                  atom     1    Si          :        11.37230378
                  atom     2     C          :         4.85149463
     total charge in muffin-tins            :        16.22379842
     total charge                           :        20.00000000
 
 Estimated fundamental gap                  :         0.04633976
        valence-band maximum at    1      0.0000  0.0000  0.0000
     conduction-band minimum at    8      0.5000  0.5000  0.0000
 
++++++++++++++++++++++++++++++++++++++++++++++++++++++++++++++++++++++++++++++++
+ Self-consistent loop stopped                                                 +
++++++++++++++++++++++++++++++++++++++++++++++++++++++++++++++++++++++++++++++++
 STATE.OUT is written
 
********************************************************************************
* Groundstate module stopped                                                   *
********************************************************************************
 
 Total time spent (seconds)                 :        11.05
================================================================================
| EXCITING OXYGEN stopped                                                      =
================================================================================
