================================================================================
| EXCITING OXYGEN started for task xsgeneigvec (301)                           =
| version hash id: e3f4f5b360f2b9de50efddf947c699ad7d28e6c7                    =
|                                                                              =
| Date (DD-MM-YYYY) : 12-07-2022                                               =
================================================================================
================================================================================
One-shot GS runs for BSE calculations
================================================================================
++++++++++++++++++++++++++++++++++++++++++++++++++++++++++++++++++++++++++++++++
One-shot GS runs for k+qmt/2 grids
++++++++++++++++++++++++++++++++++++++++++++++++++++++++++++++++++++++++++++++++
Info(xsgeneigvec): Generating eigenvectors for Q-point      1
--------------------------------------------------------------------------------
Info(xsgeneigvec): Generation of eigenvectors finished

Info(xsfinit): task Nr.     301 stopped gracefully

 Timings: 
     Date (DD-MM-YYYY)      : 12-07-2022
     Time (hh:mm:ss)        : 10:53:47
     CPU time               : 26.00 sec; 0.01 hrs; ( 0 d, 00 h, 00 m, 26 s )
     wall time              : 5.07 sec; 0.00 hrs; ( 0 d, 00 h, 00 m, 05 s )
     CPU load               : 512.92 %
     CPU time  (cumulative) : 150.59 sec; 0.04 hrs; ( 0 d, 00 h, 02 m, 31 s )
     wall time (cumulative) : 5.07 sec; 0.00 hrs; ( 0 d, 00 h, 00 m, 05 s )
     CPU load  (cumulative) : 512.92 %

================================================================================
= EXCITING OXYGEN stopped for task    301                                      =
================================================================================


================================================================================
| EXCITING OXYGEN started for task writepmatxs (320)                           =
| Date (DD-MM-YYYY) : 12-07-2022                                               =
================================================================================
Info(writepmatxs): Momentum matrix elements finished
Info(xsfinit): task Nr.     320 stopped gracefully

 Timings: 
     Date (DD-MM-YYYY)      : 12-07-2022
     Time (hh:mm:ss)        : 10:53:50
     CPU time               : 5.49 sec; 0.00 hrs; ( 0 d, 00 h, 00 m, 05 s )
     wall time              : 2.57 sec; 0.00 hrs; ( 0 d, 00 h, 00 m, 03 s )
     CPU load               : 214.04 %
     CPU time  (cumulative) : 156.09 sec; 0.04 hrs; ( 0 d, 00 h, 02 m, 36 s )
     wall time (cumulative) : 7.64 sec; 0.00 hrs; ( 0 d, 00 h, 00 m, 08 s )
     CPU load  (cumulative) : 214.04 %

================================================================================
= EXCITING OXYGEN stopped for task    320                                      =
================================================================================


================================================================================
| EXCITING OXYGEN started for task scrgeneigvec (401)                          =
| Date (DD-MM-YYYY) : 12-07-2022                                               =
================================================================================

Info(xsinit): mapping screening-specific parameters

================================================================================
One-shot GS runs for BSE calculations
================================================================================
++++++++++++++++++++++++++++++++++++++++++++++++++++++++++++++++++++++++++++++++
One-shot GS runs for k+qmt/2 grids
++++++++++++++++++++++++++++++++++++++++++++++++++++++++++++++++++++++++++++++++
Info(xsgeneigvec): Generating eigenvectors for Q-point      1
Using screening GS parameters.
--------------------------------------------------------------------------------
Info(xsgeneigvec): Generation of eigenvectors finished

Info(xsfinit): task Nr.     401 stopped gracefully

 Timings: 
     Date (DD-MM-YYYY)      : 12-07-2022
     Time (hh:mm:ss)        : 10:53:56
     CPU time               : 25.11 sec; 0.01 hrs; ( 0 d, 00 h, 00 m, 25 s )
     wall time              : 5.54 sec; 0.00 hrs; ( 0 d, 00 h, 00 m, 06 s )
     CPU load               : 453.04 %
     CPU time  (cumulative) : 181.20 sec; 0.05 hrs; ( 0 d, 00 h, 03 m, 01 s )
     wall time (cumulative) : 13.18 sec; 0.00 hrs; ( 0 d, 00 h, 00 m, 13 s )
     CPU load  (cumulative) : 453.04 %

================================================================================
= EXCITING OXYGEN stopped for task    401                                      =
================================================================================


================================================================================
| EXCITING OXYGEN started for task scrwritepmat (420)                          =
| Date (DD-MM-YYYY) : 12-07-2022                                               =
================================================================================

Info(xsinit): mapping screening-specific parameters

Info(writepmatxs): Momentum matrix elements finished
Info(scrwritepmat): Momentum matrix elements for screening finished
Info(xsfinit): task Nr.     420 stopped gracefully

 Timings: 
     Date (DD-MM-YYYY)      : 12-07-2022
     Time (hh:mm:ss)        : 10:53:59
     CPU time               : 6.91 sec; 0.00 hrs; ( 0 d, 00 h, 00 m, 07 s )
     wall time              : 3.00 sec; 0.00 hrs; ( 0 d, 00 h, 00 m, 03 s )
     CPU load               : 230.50 %
     CPU time  (cumulative) : 188.11 sec; 0.05 hrs; ( 0 d, 00 h, 03 m, 08 s )
     wall time (cumulative) : 16.18 sec; 0.00 hrs; ( 0 d, 00 h, 00 m, 16 s )
     CPU load  (cumulative) : 230.50 %

================================================================================
= EXCITING OXYGEN stopped for task    420                                      =
================================================================================


================================================================================
| EXCITING OXYGEN started for task screen (430)                                =
| Date (DD-MM-YYYY) : 12-07-2022                                               =
================================================================================

Info(xsinit): mapping screening-specific parameters

++++++++++++++++++++++++++++++++++++++++++++++++++++++++++++++++++++++++++++++++
Info(screenlauncher): Calculating screening for unshifted q-grid.
Info(screenlauncher): Number of q points:       4
++++++++++++++++++++++++++++++++++++++++++++++++++++++++++++++++++++++++++++++++

Info(screenlauncher): lowest (partially)  unoccupied state:     27
Info(screenlauncher): highest (partially) occupied state  :     26
Info(screenlauncher): number of occupied states considered:   26
Info(screenlauncher): number of unoccupied states considered:   48
--------------------------------------------------------------------------------

Info(screenlauncher): Starting loop over q-points

++++++++++++++++++++++++++++++++++++++++++++++++++++++++++++++++++++++++++++++++
Info(screenlauncher): Screening for unshifted q-grid finished
++++++++++++++++++++++++++++++++++++++++++++++++++++++++++++++++++++++++++++++++

Info(screenlauncher): Screening finished
Info(xsfinit): task Nr.     430 stopped gracefully

 Timings: 
     Date (DD-MM-YYYY)      : 12-07-2022
     Time (hh:mm:ss)        : 10:54:14
     CPU time               : 80.62 sec; 0.02 hrs; ( 0 d, 00 h, 01 m, 21 s )
     wall time              : 14.98 sec; 0.00 hrs; ( 0 d, 00 h, 00 m, 15 s )
     CPU load               : 538.10 %
     CPU time  (cumulative) : 268.73 sec; 0.07 hrs; ( 0 d, 00 h, 04 m, 29 s )
     wall time (cumulative) : 31.16 sec; 0.01 hrs; ( 0 d, 00 h, 00 m, 31 s )
     CPU load  (cumulative) : 538.10 %

================================================================================
= EXCITING OXYGEN stopped for task    430                                      =
================================================================================


================================================================================
| EXCITING OXYGEN started for task scrcoulint (440)                            =
| Date (DD-MM-YYYY) : 12-07-2022                                               =
================================================================================

Info(xsinit): mapping BSE-specific parameters

++++++++++++++++++++++++++++++++++++++++++++++++++++++++++++++++++++++++++++++++
Info(scrcoulintlauncher): Setting up screened Coulomb interaction matrix W.
Info(scrcoulintlauncher): Using momentum transfer vectors from list :   1 to  1
++++++++++++++++++++++++++++++++++++++++++++++++++++++++++++++++++++++++++++++++

++++++++++++++++++++++++++++++++++++++++++++++++++++++++++++++++++++++++++++++++
Info(scrcoulintlauncher): Calculating screened Coulomb interaction matrix W
Info(scrcoulintlauncher): Momentum transfer list index: iqmt=  1
Info(scrcoulintlauncher): Momentum transfer: vqmtl=   0.000   0.000   0.000
++++++++++++++++++++++++++++++++++++++++++++++++++++++++++++++++++++++++++++++++

Info(scrcoulintlauncher): Calculating RR block of W

--------------------------------------------------------------------------------
Info(scrcoulint): Inspecting occupations...
Info(setranges_modxs): Determining k+qmt/2 grid
Info(setranges_modxs): Determining k-qmt/2 grid
Info(setranges_modxs): Number of non-reduced k-points:        9
Info(setranges_modxs): Number of states considered:       74
Info(setranges_modxs): Number of (partially) occupied states:       26
Info(setranges_modxs): Highest (partially) occupied states:       26
Info(setranges_modxs): Number of (partially) unoccupied states:       48
Info(setranges_modxs): Lowest (partially) unoccupied states:       27
--------------------------------------------------------------------------------
Info(scrcoulint): Selecting transitions...
Info(select_transitions): Inspecting transitions in the  band interval:
  lowest occupied state:  23
  highest occupied state:  26
  lowest unoccupied state:  27
  highest unoccupied state:  30
  Opening gap with a scissor of:      0.000/H      0.000/eV
Info(select_transitions): Number of participating transitions:     144
--------------------------------------------------------------------------------
Info(scrcoulint): Size of file SCCLI will be about     0.000172 GB
Info(scrcoulint): Using q-grid
Info(scrcoulint): Number of reduced q-points:      4
Info(scrcoulint): Number of non-reduced q-points:      9

Info(scrcoulint): Calculating W(G1,G2,qr) fourier coefficients
Info(scrcoulint): Calculating W matrix elements
++++++++++++++++++++++++++++++++++++++++++++++++++++++++++++++++++++++++++++++++
Info(scrcoulintlauncher): Screened coulomb interaction finished for iqmt=   1
++++++++++++++++++++++++++++++++++++++++++++++++++++++++++++++++++++++++++++++++
Info(xsfinit): task Nr.     440 stopped gracefully

 Timings: 
     Date (DD-MM-YYYY)      : 12-07-2022
     Time (hh:mm:ss)        : 10:54:39
     CPU time               : 137.74 sec; 0.04 hrs; ( 0 d, 00 h, 02 m, 18 s )
     wall time              : 25.94 sec; 0.01 hrs; ( 0 d, 00 h, 00 m, 26 s )
     CPU load               : 530.99 %
     CPU time  (cumulative) : 406.47 sec; 0.11 hrs; ( 0 d, 00 h, 06 m, 46 s )
     wall time (cumulative) : 57.10 sec; 0.02 hrs; ( 0 d, 00 h, 00 m, 57 s )
     CPU load  (cumulative) : 530.99 %

================================================================================
= EXCITING OXYGEN stopped for task    440                                      =
================================================================================


================================================================================
| EXCITING OXYGEN started for task exccoulint (441)                            =
| Date (DD-MM-YYYY) : 12-07-2022                                               =
================================================================================

Info(xsinit): mapping BSE-specific parameters

++++++++++++++++++++++++++++++++++++++++++++++++++++++++++++++++++++++++++++++++
Info(exccoulintlauncher): Setting up exchange interaction matrix V.
Info(exccoulintlauncher): Using momentum transfer vectors from list :   1 to  1
++++++++++++++++++++++++++++++++++++++++++++++++++++++++++++++++++++++++++++++++

++++++++++++++++++++++++++++++++++++++++++++++++++++++++++++++++++++++++++++++++
Info(exccoulintlauncher):Calculating exchange interaction matrix V
Info(exccoulintlauncher): Momentum transfer list index: iqmt=  1
Info(exccoulintlauncher): Momentum transfer: vqmtl=   0.000   0.000   0.000
++++++++++++++++++++++++++++++++++++++++++++++++++++++++++++++++++++++++++++++++

Info(exccoulintlauncher): Calculating RR block of V

--------------------------------------------------------------------------------
Info(exccoulint): Inspecting occupations...
Info(setranges_modxs): Determining k+qmt/2 grid
Info(setranges_modxs): Determining k-qmt/2 grid
Info(setranges_modxs): Number of non-reduced k-points:        9
Info(setranges_modxs): Number of states considered:       74
Info(setranges_modxs): Number of (partially) occupied states:       26
Info(setranges_modxs): Highest (partially) occupied states:       26
Info(setranges_modxs): Number of (partially) unoccupied states:       48
Info(setranges_modxs): Lowest (partially) unoccupied states:       27
--------------------------------------------------------------------------------
Info(exccoulint): Selecting transitions...
Info(select_transitions): Inspecting transitions in the  band interval:
  lowest occupied state:  23
  highest occupied state:  26
  lowest unoccupied state:  27
  highest unoccupied state:  30
  Opening gap with a scissor of:      0.000/H      0.000/eV
Info(select_transitions): Number of participating transitions:     144
--------------------------------------------------------------------------------
Info(exccoulint): Size of file EXCLI will be about     0.000172 GB

Info(exccoulint): Generating plane wave matrix elements for momentum transfer iqmt=   1
  Timing (in seconds)	   :       1.672

Info(exccoulint): Generating V matrix elements
Info(exccoulint): Zeroing Coulomb potential at G+qmt index:  1
++++++++++++++++++++++++++++++++++++++++++++++++++++++++++++++++++++++++++++++++
Info(exccoulintlauncher): Exchange interaction finished for iqmt=   1
++++++++++++++++++++++++++++++++++++++++++++++++++++++++++++++++++++++++++++++++
Info(xsfinit): task Nr.     441 stopped gracefully

 Timings: 
     Date (DD-MM-YYYY)      : 12-07-2022
     Time (hh:mm:ss)        : 10:54:42
     CPU time               : 11.19 sec; 0.00 hrs; ( 0 d, 00 h, 00 m, 11 s )
     wall time              : 2.24 sec; 0.00 hrs; ( 0 d, 00 h, 00 m, 02 s )
     CPU load               : 498.83 %
     CPU time  (cumulative) : 417.65 sec; 0.12 hrs; ( 0 d, 00 h, 06 m, 58 s )
     wall time (cumulative) : 59.34 sec; 0.02 hrs; ( 0 d, 00 h, 00 m, 59 s )
     CPU load  (cumulative) : 498.83 %

================================================================================
= EXCITING OXYGEN stopped for task    441                                      =
================================================================================


================================================================================
| EXCITING OXYGEN started for task bse (445)                                   =
| Date (DD-MM-YYYY) : 12-07-2022                                               =
================================================================================

Info(xsinit): mapping BSE-specific parameters

Info(bselauncher): Init time:    0.495587
++++++++++++++++++++++++++++++++++++++++++++++++++++++++++++++++++++++++++++++++
Info(bselauncher): Setting up and diagonalizing BSE Hamiltonian.
Info(bselauncher): Using momentum transfer vectors from list :   1 to  1
++++++++++++++++++++++++++++++++++++++++++++++++++++++++++++++++++++++++++++++++
Info(bselauncher): Serial execution
++++++++++++++++++++++++++++++++++++++++++++++++++++++++++++++++++++++++++++++++
--------------------------------------------------------------------------------
Info(bselauncher): Momentum transfer list index: iqmt=  1
Info(bselauncher): Momentum transfer: vqmtl=   0.000   0.000   0.000
--------------------------------------------------------------------------------
--------------------------------------------------------------------------------
Info(bse): Inspecting occupations...
Info(setranges_modxs): Determining k+qmt/2 grid
Info(setranges_modxs): Determining k-qmt/2 grid
Info(setranges_modxs): Number of non-reduced k-points:        9
Info(setranges_modxs): Number of states considered:       74
Info(setranges_modxs): Number of (partially) occupied states:       26
Info(setranges_modxs): Highest (partially) occupied states:       26
Info(setranges_modxs): Number of (partially) unoccupied states:       48
Info(setranges_modxs): Lowest (partially) unoccupied states:       27
Info(select_transitions): Inspecting transitions in the  band interval:
  lowest occupied state:  23
  highest occupied state:  26
  lowest unoccupied state:  27
  highest unoccupied state:  30
  Opening gap with a scissor of:      0.000/H      0.000/eV
Info(select_transitions): Number of participating transitions:     144
--------------------------------------------------------------------------------
Info(bse): Selecting transitions...
--------------------------------------------------------------------------------

Info(bse):bsegap (eV):     2.4960725975839955
Info(bse): Assembling BSE matrix
  RR/RA blocks of global BSE-Hamiltonian:
  Size of the Hamiltonian:     144
  Number of k-points:       9
  Distributing matrix to   1 processes
  Local matrix shape    144 x   144
Info(bse): max local RAM needed for BSE matrices ~     0.000309 GB

--------------------------------------------------------------------------------
Info(setup_bse_block): Setting up RR part of hamiltonian
Info(setup_bse_block): Singlet spin state
 Hamiltonian constructed.
All processes build their local matrix
Info(bse): Diagonalizing RR Hamiltonian (TDA)
Info(bse): Invoking Lapack routine ZHEEVR
       144 eigen solutions found in the interval:
         i1=       1 i2=     144

--------------------------------------------------------------------------------
Info(makeoscistr_dist): Making oscillator strengths (distributed).
Info(makeoscistr_dist): iqmt=   1
Info(makeoscistr_dist): Qmt=       0.000000       0.000000       0.000000
Info(makeoscistr_dist): Using zero momentum transfer formalismus.
Info(makeoscistr_dist): Making oscillator strengths using dipole operator matrix elements.
  Building Dipole matrix.
  Building distributed resonant oscillator strengths.

--------------------------------------------------------------------------------
Info(bse): Writing excition energies and oscillator strengths to text file.
Info(makespectrum_dist): Making spectrum using formula for coupling with time reversed AR basis.
Info(makespectrum_dist): Using formalism for vanishing momentum transfer.
Info(makespectrum_dist): Including off diagonals.
Info(finalizespectrum): Finalizing spectrum.
Info(finalizespectrum): Using modified density-response function to build spectrum.
Info(finalizespectrum): Finalizing spectrum.
Info(finalizespectrum): Using modified density-response function to build spectrum.
Info(finalizespectrum): Finalizing spectrum.
Info(finalizespectrum): Using modified density-response function to build spectrum.
Info(finalizespectrum): Finalizing spectrum.
Info(finalizespectrum): Using modified density-response function to build spectrum.
Info(writederived): Writing quantities derived from the macroscopic dielectric function.
  Derived quantities written.
Info(writederived): Writing quantities derived from the macroscopic dielectric function.
  Derived quantities written.
Info(writederived): Writing quantities derived from the macroscopic dielectric function.
  Derived quantities written.
Info(writederived): Writing quantities derived from the macroscopic dielectric function.
  Derived quantities written.
--------------------------------------------------------------------------------
Info(bselauncher): Spectrum finished for iqmt=  1
--------------------------------------------------------------------------------
Info(xsfinit): task Nr.     445 stopped gracefully

 Timings: 
     Date (DD-MM-YYYY)      : 12-07-2022
     Time (hh:mm:ss)        : 10:54:46
     CPU time               : 6.00 sec; 0.00 hrs; ( 0 d, 00 h, 00 m, 06 s )
     wall time              : 4.10 sec; 0.00 hrs; ( 0 d, 00 h, 00 m, 04 s )
     CPU load               : 146.14 %
     CPU time  (cumulative) : 423.65 sec; 0.12 hrs; ( 0 d, 00 h, 07 m, 04 s )
     wall time (cumulative) : 63.45 sec; 0.02 hrs; ( 0 d, 00 h, 01 m, 03 s )
     CPU load  (cumulative) : 146.14 %

================================================================================
= EXCITING OXYGEN stopped for task    445                                      =
================================================================================


