================================================================================
| EXCITING OXYGEN started                                                      =
| version hash id: c25a8325fd11fe6d52287089343be452627ec299                    =
|                                                                              =
| compiler: ifort (IFORT) 19.0.0.117 20180804                                  =
|                                                                              =
|                                                                              =
| Date (DD-MM-YYYY) : 20-10-2022                                               =
| Time (hh:mm:ss)   : 10:13:31                                                 =
|                                                                              =
| All units are atomic (Hartree, Bohr, etc.)                                   =
================================================================================
 
********************************************************************************
* Ground-state run starting from atomic densities                              *
********************************************************************************
 
++++++++++++++++++++++++++++++++++++++++++++++++++++++++++++++++++++++++++++++++
+ Starting initialization                                                      +
++++++++++++++++++++++++++++++++++++++++++++++++++++++++++++++++++++++++++++++++
 
 Lattice vectors (cartesian) :
      3.4156800000      0.0000000000      3.4156800000
      0.0000000000      3.4156800000      3.4156800000
      3.4156800000      3.4156800000      0.0000000000
 
 Reciprocal lattice vectors (cartesian) :
      0.9197561404     -0.9197561404      0.9197561404
     -0.9197561404      0.9197561404      0.9197561404
      0.9197561404      0.9197561404     -0.9197561404
 
 Unit cell volume                           :      79.7005881032
 Brillouin zone volume                      :       3.1122758231
 
 Automatic determination of muffin-tin radii :
     global rmt scale                       :       0.9500000000
 
 Species :    1 (B)
     parameters loaded from                 :    B.xml
     name                                   :    boron
     nuclear charge                         :      -5.00000000
     electronic charge                      :       5.00000000
     atomic mass                            :   19707.24741000
     muffin-tin radius                      :       1.36040000
     # of radial points in muffin-tin       :     250
 
     atomic positions (lattice) :
       1 :   0.00000000  0.00000000  0.00000000
 
 Species :    2 (N)
     parameters loaded from                 :    N.xml
     name                                   :    nitrogen
     nuclear charge                         :      -7.00000000
     electronic charge                      :       7.00000000
     atomic mass                            :   25532.72506000
     muffin-tin radius                      :       1.44960000
     # of radial points in muffin-tin       :     250
 
     atomic positions (lattice) :
       1 :   0.25000000  0.25000000  0.25000000
 
 Total number of atoms per unit cell        :       2
 
 Spin treatment                             :    spin-unpolarised
 
 Number of Bravais lattice symmetries       :      48
 Number of crystal symmetries               :      24
 
 k-point grid                               :       4    4    4
 Total number of k-points                   :      10
 k-point set is reduced with crystal symmetries
 
 R^MT_min * |G+k|_max (rgkmax)              :       6.00709136
 Species with R^MT_min                      :       1 (B)
 Maximum |G+k| for APW functions            :       4.41568021
 Maximum |G| for potential and density      :      14.00000000
 
 G-vector grid sizes                        :      24    24    24
 Total number of G-vectors                  :    3695
 
 Maximum angular momentum used for
     APW functions                          :       8
     computing H and O matrix elements      :       8
     potential and density                  :       8
     inner part of muffin-tin               :       2
 
 Total nuclear charge                       :     -12.00000000
 Total electronic charge                    :      12.00000000
 Total core charge                          :       4.00000000
 Total valence charge                       :       8.00000000
 
 Number of empty states                     :       5
 Total number of valence states             :      10
 
 Maximum Hamiltonian size                   :     133
 Maximum number of plane-waves              :     125
 Total number of local-orbitals             :       8
 
 Exchange-correlation type                  :      22
     PBEsol, Phys. Rev. Lett. 100, 136406 (2008)
     Generalised gradient approximation (GGA)
 
 Smearing scheme                            :    Gaussian
 Smearing width                             :       0.00100000
 
 Using multisecant Broyden potential mixing
 
++++++++++++++++++++++++++++++++++++++++++++++++++++++++++++++++++++++++++++++++
+ Ending initialization                                                        +
++++++++++++++++++++++++++++++++++++++++++++++++++++++++++++++++++++++++++++++++
 
********************************************************************************
* Groundstate module started                                                   *
********************************************************************************
 Output level for this task is set to normal
 
++++++++++++++++++++++++++++++++++++++++++++++++++++++++++++++++++++++++++++++++
+ Self-consistent loop started                                                 +
++++++++++++++++++++++++++++++++++++++++++++++++++++++++++++++++++++++++++++++++
 Density and potential initialised from atomic data
 
 
++++++++++++++++++++++++++++++++++++++++++++++++++++++++++++++++++++++++++++++++
+ SCF iteration number :    1                                                  +
++++++++++++++++++++++++++++++++++++++++++++++++++++++++++++++++++++++++++++++++
 Total energy                               :       -80.87220294
 _______________________________________________________________
 Fermi energy                               :         0.38624652
 Kinetic energy                             :        78.42609635
 Coulomb energy                             :      -148.46798782
 Exchange energy                            :       -10.34047019
 Correlation energy                         :        -0.48984129
 
 DOS at Fermi energy (states/Ha/cell)       :         0.00000000
 
 Electron charges :
     core                                   :         4.00000000
     core leakage                           :         0.00145764
     valence                                :         8.00000000
     interstitial                           :         3.03132545
     charge in muffin-tin spheres :
                  atom     1     B          :         2.98960997
                  atom     2     N          :         5.97906458
     total charge in muffin-tins            :         8.96867455
     total charge                           :        12.00000000
 
 Estimated fundamental gap                  :         0.21936618
        valence-band maximum at    1      0.0000  0.0000  0.0000
     conduction-band minimum at    8      0.5000  0.5000  0.0000
 
 Wall time (seconds)                        :         1.36
 
++++++++++++++++++++++++++++++++++++++++++++++++++++++++++++++++++++++++++++++++
+ SCF iteration number :    2                                                  +
++++++++++++++++++++++++++++++++++++++++++++++++++++++++++++++++++++++++++++++++
 Total energy                               :       -80.08195928
 _______________________________________________________________
 Fermi energy                               :         0.40547007
 Kinetic energy                             :        78.71921393
 Coulomb energy                             :      -148.04225906
 Exchange energy                            :       -10.26684945
 Correlation energy                         :        -0.49206469
 
 DOS at Fermi energy (states/Ha/cell)       :         0.00000000
 
 Electron charges :
     core                                   :         4.00000000
     core leakage                           :         0.00145014
     valence                                :         8.00000000
     interstitial                           :         3.13933408
     charge in muffin-tin spheres :
                  atom     1     B          :         3.05879326
                  atom     2     N          :         5.80187266
     total charge in muffin-tins            :         8.86066592
     total charge                           :        12.00000000
 
 Estimated fundamental gap                  :         0.18710848
        valence-band maximum at    1      0.0000  0.0000  0.0000
     conduction-band minimum at    8      0.5000  0.5000  0.0000
 
 Wall time (seconds)                        :         2.07
 
 RMS change in effective potential (target) :   1.18413      ( 0.100000E-05)
 Absolute change in total energy   (target) :  0.790244      ( 0.100000E-05)
 Charge distance                   (target) :  0.298431E-01  ( 0.100000E-04)
 
++++++++++++++++++++++++++++++++++++++++++++++++++++++++++++++++++++++++++++++++
+ SCF iteration number :    3                                                  +
++++++++++++++++++++++++++++++++++++++++++++++++++++++++++++++++++++++++++++++++
 Total energy                               :       -79.71011079
 _______________________________________________________________
 Fermi energy                               :         0.41500715
 Kinetic energy                             :        78.85931860
 Coulomb energy                             :      -147.84247836
 Exchange energy                            :       -10.23372912
 Correlation energy                         :        -0.49322190
 
 DOS at Fermi energy (states/Ha/cell)       :         0.00000000
 
 Electron charges :
     core                                   :         4.00000000
     core leakage                           :         0.00144946
     valence                                :         8.00000000
     interstitial                           :         3.19197579
     charge in muffin-tin spheres :
                  atom     1     B          :         3.08610172
                  atom     2     N          :         5.72192249
     total charge in muffin-tins            :         8.80802421
     total charge                           :        12.00000000
 
 Estimated fundamental gap                  :         0.17162139
        valence-band maximum at    1      0.0000  0.0000  0.0000
     conduction-band minimum at    8      0.5000  0.5000  0.0000
 
 Wall time (seconds)                        :         2.79
 
 RMS change in effective potential (target) :  0.867828      ( 0.100000E-05)
 Absolute change in total energy   (target) :  0.371848      ( 0.100000E-05)
 Charge distance                   (target) :  0.134447E-01  ( 0.100000E-04)
 
++++++++++++++++++++++++++++++++++++++++++++++++++++++++++++++++++++++++++++++++
+ SCF iteration number :    4                                                  +
++++++++++++++++++++++++++++++++++++++++++++++++++++++++++++++++++++++++++++++++
 Total energy                               :       -79.94938098
 _______________________________________________________________
 Fermi energy                               :         0.41170655
 Kinetic energy                             :        78.87099541
 Coulomb energy                             :      -148.06024402
 Exchange energy                            :       -10.26744417
 Correlation energy                         :        -0.49268820
 
 DOS at Fermi energy (states/Ha/cell)       :         0.00000000
 
 Electron charges :
     core                                   :         4.00000000
     core leakage                           :         0.00147531
     valence                                :         8.00000000
     interstitial                           :         3.16182901
     charge in muffin-tin spheres :
                  atom     1     B          :         3.00462446
                  atom     2     N          :         5.83354653
     total charge in muffin-tins            :         8.83817099
     total charge                           :        12.00000000
 
 Estimated fundamental gap                  :         0.18074927
        valence-band maximum at    1      0.0000  0.0000  0.0000
     conduction-band minimum at    8      0.5000  0.5000  0.0000
 
 Wall time (seconds)                        :         3.52
 
 RMS change in effective potential (target) :  0.843044E-01  ( 0.100000E-05)
 Absolute change in total energy   (target) :  0.239270      ( 0.100000E-05)
 Charge distance                   (target) :  0.218168E-01  ( 0.100000E-04)
 
++++++++++++++++++++++++++++++++++++++++++++++++++++++++++++++++++++++++++++++++
+ SCF iteration number :    5                                                  +
++++++++++++++++++++++++++++++++++++++++++++++++++++++++++++++++++++++++++++++++
 Total energy                               :       -79.29116867
 _______________________________________________________________
 Fermi energy                               :         0.42684188
 Kinetic energy                             :        79.04960382
 Coulomb energy                             :      -147.64646941
 Exchange energy                            :       -10.19955456
 Correlation energy                         :        -0.49474852
 
 DOS at Fermi energy (states/Ha/cell)       :         0.00000000
 
 Electron charges :
     core                                   :         4.00000000
     core leakage                           :         0.00145343
     valence                                :         8.00000000
     interstitial                           :         3.25755381
     charge in muffin-tin spheres :
                  atom     1     B          :         3.09515281
                  atom     2     N          :         5.64729338
     total charge in muffin-tins            :         8.74244619
     total charge                           :        12.00000000
 
 Estimated fundamental gap                  :         0.15222366
        valence-band maximum at    1      0.0000  0.0000  0.0000
     conduction-band minimum at    8      0.5000  0.5000  0.0000
 
 Wall time (seconds)                        :         4.24
 
 RMS change in effective potential (target) :  0.182211E-01  ( 0.100000E-05)
 Absolute change in total energy   (target) :  0.658212      ( 0.100000E-05)
 Charge distance                   (target) :  0.320880E-01  ( 0.100000E-04)
 
++++++++++++++++++++++++++++++++++++++++++++++++++++++++++++++++++++++++++++++++
+ SCF iteration number :    6                                                  +
++++++++++++++++++++++++++++++++++++++++++++++++++++++++++++++++++++++++++++++++
 Total energy                               :       -79.36448406
 _______________________________________________________________
 Fermi energy                               :         0.42521354
 Kinetic energy                             :        79.03502742
 Coulomb energy                             :      -147.69695841
 Exchange energy                            :       -10.20806737
 Correlation energy                         :        -0.49448570
 
 DOS at Fermi energy (states/Ha/cell)       :         0.00000000
 
 Electron charges :
     core                                   :         4.00000000
     core leakage                           :         0.00145849
     valence                                :         8.00000000
     interstitial                           :         3.24547098
     charge in muffin-tin spheres :
                  atom     1     B          :         3.08099063
                  atom     2     N          :         5.67353839
     total charge in muffin-tins            :         8.75452902
     total charge                           :        12.00000000
 
 Estimated fundamental gap                  :         0.15600227
        valence-band maximum at    1      0.0000  0.0000  0.0000
     conduction-band minimum at    8      0.5000  0.5000  0.0000
 
 Wall time (seconds)                        :         4.96
 
 RMS change in effective potential (target) :  0.280282E-02  ( 0.100000E-05)
 Absolute change in total energy   (target) :  0.733154E-01  ( 0.100000E-05)
 Charge distance                   (target) :  0.460930E-02  ( 0.100000E-04)
 
++++++++++++++++++++++++++++++++++++++++++++++++++++++++++++++++++++++++++++++++
+ SCF iteration number :    7                                                  +
++++++++++++++++++++++++++++++++++++++++++++++++++++++++++++++++++++++++++++++++
 Total energy                               :       -79.38161635
 _______________________________________________________________
 Fermi energy                               :         0.42481200
 Kinetic energy                             :        79.02924137
 Coulomb energy                             :      -147.70696050
 Exchange energy                            :       -10.20945837
 Correlation energy                         :        -0.49443885
 
 DOS at Fermi energy (states/Ha/cell)       :         0.00000000
 
 Electron charges :
     core                                   :         4.00000000
     core leakage                           :         0.00145814
     valence                                :         8.00000000
     interstitial                           :         3.24338779
     charge in muffin-tin spheres :
                  atom     1     B          :         3.07987915
                  atom     2     N          :         5.67673306
     total charge in muffin-tins            :         8.75661221
     total charge                           :        12.00000000
 
 Estimated fundamental gap                  :         0.15655534
        valence-band maximum at    1      0.0000  0.0000  0.0000
     conduction-band minimum at    8      0.5000  0.5000  0.0000
 
 Wall time (seconds)                        :         5.68
 
 RMS change in effective potential (target) :  0.239508E-03  ( 0.100000E-05)
 Absolute change in total energy   (target) :  0.171323E-01  ( 0.100000E-05)
 Charge distance                   (target) :  0.536711E-03  ( 0.100000E-04)
 
++++++++++++++++++++++++++++++++++++++++++++++++++++++++++++++++++++++++++++++++
+ SCF iteration number :    8                                                  +
++++++++++++++++++++++++++++++++++++++++++++++++++++++++++++++++++++++++++++++++
 Total energy                               :       -79.38251313
 _______________________________________________________________
 Fermi energy                               :         0.42478626
 Kinetic energy                             :        79.02902257
 Coulomb energy                             :      -147.70754928
 Exchange energy                            :       -10.20955024
 Correlation energy                         :        -0.49443618
 
 DOS at Fermi energy (states/Ha/cell)       :         0.00000000
 
 Electron charges :
     core                                   :         4.00000000
     core leakage                           :         0.00145820
     valence                                :         8.00000000
     interstitial                           :         3.24325745
     charge in muffin-tin spheres :
                  atom     1     B          :         3.07974177
                  atom     2     N          :         5.67700078
     total charge in muffin-tins            :         8.75674255
     total charge                           :        12.00000000
 
 Estimated fundamental gap                  :         0.15658830
        valence-band maximum at    1      0.0000  0.0000  0.0000
     conduction-band minimum at    8      0.5000  0.5000  0.0000
 
 Wall time (seconds)                        :         6.42
 
 RMS change in effective potential (target) :  0.443128E-04  ( 0.100000E-05)
 Absolute change in total energy   (target) :  0.896780E-03  ( 0.100000E-05)
 Charge distance                   (target) :  0.461524E-04  ( 0.100000E-04)
 
++++++++++++++++++++++++++++++++++++++++++++++++++++++++++++++++++++++++++++++++
+ SCF iteration number :    9                                                  +
++++++++++++++++++++++++++++++++++++++++++++++++++++++++++++++++++++++++++++++++
 Total energy                               :       -79.38270062
 _______________________________________________________________
 Fermi energy                               :         0.42478019
 Kinetic energy                             :        79.02893164
 Coulomb energy                             :      -147.70762789
 Exchange energy                            :       -10.20956878
 Correlation energy                         :        -0.49443560
 
 DOS at Fermi energy (states/Ha/cell)       :         0.00000000
 
 Electron charges :
     core                                   :         4.00000000
     core leakage                           :         0.00145821
     valence                                :         8.00000000
     interstitial                           :         3.24322452
     charge in muffin-tin spheres :
                  atom     1     B          :         3.07970430
                  atom     2     N          :         5.67707118
     total charge in muffin-tins            :         8.75677548
     total charge                           :        12.00000000
 
 Estimated fundamental gap                  :         0.15659751
        valence-band maximum at    1      0.0000  0.0000  0.0000
     conduction-band minimum at    8      0.5000  0.5000  0.0000
 
 Wall time (seconds)                        :         7.14
 
 RMS change in effective potential (target) :  0.370926E-04  ( 0.100000E-05)
 Absolute change in total energy   (target) :  0.187493E-03  ( 0.100000E-05)
 Charge distance                   (target) :  0.122852E-04  ( 0.100000E-04)
 
++++++++++++++++++++++++++++++++++++++++++++++++++++++++++++++++++++++++++++++++
+ SCF iteration number :   10                                                  +
++++++++++++++++++++++++++++++++++++++++++++++++++++++++++++++++++++++++++++++++
 Total energy                               :       -79.38271730
 _______________________________________________________________
 Fermi energy                               :         0.42477985
 Kinetic energy                             :        79.02892747
 Coulomb energy                             :      -147.70763891
 Exchange energy                            :       -10.20957031
 Correlation energy                         :        -0.49443555
 
 DOS at Fermi energy (states/Ha/cell)       :         0.00000000
 
 Electron charges :
     core                                   :         4.00000000
     core leakage                           :         0.00145821
     valence                                :         8.00000000
     interstitial                           :         3.24322245
     charge in muffin-tin spheres :
                  atom     1     B          :         3.07970251
                  atom     2     N          :         5.67707504
     total charge in muffin-tins            :         8.75677755
     total charge                           :        12.00000000
 
 Estimated fundamental gap                  :         0.15659807
        valence-band maximum at    1      0.0000  0.0000  0.0000
     conduction-band minimum at    8      0.5000  0.5000  0.0000
 
 Wall time (seconds)                        :         7.86
 
 RMS change in effective potential (target) :  0.328832E-04  ( 0.100000E-05)
 Absolute change in total energy   (target) :  0.166825E-04  ( 0.100000E-05)
 Charge distance                   (target) :  0.660755E-06  ( 0.100000E-04)
 
++++++++++++++++++++++++++++++++++++++++++++++++++++++++++++++++++++++++++++++++
+ SCF iteration number :   11                                                  +
++++++++++++++++++++++++++++++++++++++++++++++++++++++++++++++++++++++++++++++++
 Total energy                               :       -79.38271052
 _______________________________________________________________
 Fermi energy                               :         0.42478008
 Kinetic energy                             :        79.02892743
 Coulomb energy                             :      -147.70763368
 Exchange energy                            :       -10.20956866
 Correlation energy                         :        -0.49443561
 
 DOS at Fermi energy (states/Ha/cell)       :         0.00000000
 
 Electron charges :
     core                                   :         4.00000000
     core leakage                           :         0.00145821
     valence                                :         8.00000000
     interstitial                           :         3.24322505
     charge in muffin-tin spheres :
                  atom     1     B          :         3.07970693
                  atom     2     N          :         5.67706802
     total charge in muffin-tins            :         8.75677495
     total charge                           :        12.00000000
 
 Estimated fundamental gap                  :         0.15659716
        valence-band maximum at    1      0.0000  0.0000  0.0000
     conduction-band minimum at    8      0.5000  0.5000  0.0000
 
 Wall time (seconds)                        :         8.59
 
 RMS change in effective potential (target) :  0.263698E-05  ( 0.100000E-05)
 Absolute change in total energy   (target) :  0.677953E-05  ( 0.100000E-05)
 Charge distance                   (target) :  0.126659E-05  ( 0.100000E-04)
 
++++++++++++++++++++++++++++++++++++++++++++++++++++++++++++++++++++++++++++++++
+ SCF iteration number :   12                                                  +
++++++++++++++++++++++++++++++++++++++++++++++++++++++++++++++++++++++++++++++++
 Total energy                               :       -79.38269880
 _______________________________________________________________
 Fermi energy                               :         0.42478040
 Kinetic energy                             :        79.02893091
 Coulomb energy                             :      -147.70762662
 Exchange energy                            :       -10.20956743
 Correlation energy                         :        -0.49443565
 
 DOS at Fermi energy (states/Ha/cell)       :         0.00000000
 
 Electron charges :
     core                                   :         4.00000000
     core leakage                           :         0.00145821
     valence                                :         8.00000000
     interstitial                           :         3.24322688
     charge in muffin-tin spheres :
                  atom     1     B          :         3.07970866
                  atom     2     N          :         5.67706445
     total charge in muffin-tins            :         8.75677312
     total charge                           :        12.00000000
 
 Estimated fundamental gap                  :         0.15659660
        valence-band maximum at    1      0.0000  0.0000  0.0000
     conduction-band minimum at    8      0.5000  0.5000  0.0000
 
 Wall time (seconds)                        :         9.32
 
 RMS change in effective potential (target) :  0.143688E-05  ( 0.100000E-05)
 Absolute change in total energy   (target) :  0.117232E-04  ( 0.100000E-05)
 Charge distance                   (target) :  0.617204E-06  ( 0.100000E-04)
 
++++++++++++++++++++++++++++++++++++++++++++++++++++++++++++++++++++++++++++++++
+ SCF iteration number :   13                                                  +
++++++++++++++++++++++++++++++++++++++++++++++++++++++++++++++++++++++++++++++++
 Total energy                               :       -79.38270024
 _______________________________________________________________
 Fermi energy                               :         0.42478036
 Kinetic energy                             :        79.02893051
 Coulomb energy                             :      -147.70762753
 Exchange energy                            :       -10.20956757
 Correlation energy                         :        -0.49443565
 
 DOS at Fermi energy (states/Ha/cell)       :         0.00000000
 
 Electron charges :
     core                                   :         4.00000000
     core leakage                           :         0.00145821
     valence                                :         8.00000000
     interstitial                           :         3.24322670
     charge in muffin-tin spheres :
                  atom     1     B          :         3.07970850
                  atom     2     N          :         5.67706480
     total charge in muffin-tins            :         8.75677330
     total charge                           :        12.00000000
 
 Estimated fundamental gap                  :         0.15659665
        valence-band maximum at    1      0.0000  0.0000  0.0000
     conduction-band minimum at    8      0.5000  0.5000  0.0000
 
 Wall time (seconds)                        :        10.05
 
 RMS change in effective potential (target) :  0.348849E-07  ( 0.100000E-05)
 Absolute change in total energy   (target) :  0.143610E-05  ( 0.100000E-05)
 Charge distance                   (target) :  0.605155E-07  ( 0.100000E-04)
 
++++++++++++++++++++++++++++++++++++++++++++++++++++++++++++++++++++++++++++++++
+ SCF iteration number :   14                                                  +
++++++++++++++++++++++++++++++++++++++++++++++++++++++++++++++++++++++++++++++++
 Total energy                               :       -79.38270031
 _______________________________________________________________
 Fermi energy                               :         0.42478036
 Kinetic energy                             :        79.02893047
 Coulomb energy                             :      -147.70762756
 Exchange energy                            :       -10.20956757
 Correlation energy                         :        -0.49443565
 
 DOS at Fermi energy (states/Ha/cell)       :         0.00000000
 
 Electron charges :
     core                                   :         4.00000000
     core leakage                           :         0.00145821
     valence                                :         8.00000000
     interstitial                           :         3.24322669
     charge in muffin-tin spheres :
                  atom     1     B          :         3.07970851
                  atom     2     N          :         5.67706480
     total charge in muffin-tins            :         8.75677331
     total charge                           :        12.00000000
 
 Estimated fundamental gap                  :         0.15659666
        valence-band maximum at    1      0.0000  0.0000  0.0000
     conduction-band minimum at    8      0.5000  0.5000  0.0000
 
 Wall time (seconds)                        :        10.78
 
 RMS change in effective potential (target) :  0.145031E-07  ( 0.100000E-05)
 Absolute change in total energy   (target) :  0.696177E-07  ( 0.100000E-05)
 Charge distance                   (target) :  0.138006E-08  ( 0.100000E-04)
 
++++++++++++++++++++++++++++++++++++++++++++++++++++++++++++++++++++++++++++++++
+ SCF iteration number :   15                                                  +
++++++++++++++++++++++++++++++++++++++++++++++++++++++++++++++++++++++++++++++++
 Total energy                               :       -79.38270030
 _______________________________________________________________
 Fermi energy                               :         0.42478036
 Kinetic energy                             :        79.02893047
 Coulomb energy                             :      -147.70762756
 Exchange energy                            :       -10.20956757
 Correlation energy                         :        -0.49443565
 
 DOS at Fermi energy (states/Ha/cell)       :         0.00000000
 
 Electron charges :
     core                                   :         4.00000000
     core leakage                           :         0.00145821
     valence                                :         8.00000000
     interstitial                           :         3.24322669
     charge in muffin-tin spheres :
                  atom     1     B          :         3.07970850
                  atom     2     N          :         5.67706480
     total charge in muffin-tins            :         8.75677331
     total charge                           :        12.00000000
 
 Estimated fundamental gap                  :         0.15659665
        valence-band maximum at    1      0.0000  0.0000  0.0000
     conduction-band minimum at    8      0.5000  0.5000  0.0000
 
 Wall time (seconds)                        :        11.51
 
 RMS change in effective potential (target) :  0.133964E-08  ( 0.100000E-05)
 Absolute change in total energy   (target) :  0.210159E-08  ( 0.100000E-05)
 Charge distance                   (target) :  0.140207E-09  ( 0.100000E-04)
                                                                                
++++++++++++++++++++++++++++++++++++++++++++++++++++++++++++++++++++++++++++++++
| Convergency criteria checked for the last 2 iterations                       +
| Convergence targets achieved. Performing final SCF iteration                 +
++++++++++++++++++++++++++++++++++++++++++++++++++++++++++++++++++++++++++++++++
 Total energy                               :       -79.38270030
 _______________________________________________________________
 Fermi energy                               :         0.42478036
 Kinetic energy                             :        79.02893047
 Coulomb energy                             :      -147.70762756
 Exchange energy                            :       -10.20956757
 Correlation energy                         :        -0.49443565
 
 DOS at Fermi energy (states/Ha/cell)       :         0.00000000
 
 Electron charges :
     core                                   :         4.00000000
     core leakage                           :         0.00145821
     valence                                :         8.00000000
     interstitial                           :         3.24322669
     charge in muffin-tin spheres :
                  atom     1     B          :         3.07970850
                  atom     2     N          :         5.67706480
     total charge in muffin-tins            :         8.75677331
     total charge                           :        12.00000000
 
 Estimated fundamental gap                  :         0.15659665
        valence-band maximum at    1      0.0000  0.0000  0.0000
     conduction-band minimum at    8      0.5000  0.5000  0.0000
 
++++++++++++++++++++++++++++++++++++++++++++++++++++++++++++++++++++++++++++++++
+ Self-consistent loop stopped                                                 +
++++++++++++++++++++++++++++++++++++++++++++++++++++++++++++++++++++++++++++++++
 STATE.OUT is written
 
********************************************************************************
* Groundstate module stopped                                                   *
********************************************************************************
 
 Total time spent (seconds)                 :        10.39
================================================================================
| EXCITING OXYGEN stopped                                                      =
================================================================================
