================================================================================
| EXCITING NITROGEN-14 started                                                 =
| version hash id: 5146bf7576ed433b0c4ddb9e91c1ebe342f5ea24                    =
|                                                                              =
|                                                                              =
| Date (DD-MM-YYYY) : 19-01-2021                                               =
| Time (hh:mm:ss)   : 21:09:12                                                 =
|                                                                              =
| All units are atomic (Hartree, Bohr, etc.)                                   =
================================================================================
 
********************************************************************************
* Ground-state run starting from atomic densities                              *
********************************************************************************
 
++++++++++++++++++++++++++++++++++++++++++++++++++++++++++++++++++++++++++++++++
+ Starting initialization                                                      +
++++++++++++++++++++++++++++++++++++++++++++++++++++++++++++++++++++++++++++++++
 
 Lattice vectors (cartesian) :
      5.1300000000      5.1300000000      0.0000000000
      5.1300000000      0.0000000000      5.1300000000
      0.0000000000      5.1300000000      5.1300000000
 
 Reciprocal lattice vectors (cartesian) :
      0.6123962288      0.6123962288     -0.6123962288
      0.6123962288     -0.6123962288      0.6123962288
     -0.6123962288      0.6123962288      0.6123962288
 
 Unit cell volume                           :     270.0113940000
 Brillouin zone volume                      :       0.9186657265
 
 Species :    1 (Si)
     parameters loaded from                 :    Si.xml
     name                                   :    silicon
     nuclear charge                         :     -14.00000000
     electronic charge                      :      14.00000000
     atomic mass                            :   51196.73454000
     muffin-tin radius                      :       2.10000000
     # of radial points in muffin-tin       :     300
 
     atomic positions (lattice) :
       1 :   0.00000000  0.00000000  0.00000000
       2 :   0.25000000  0.25000000  0.25000000
 
 Total number of atoms per unit cell        :       2
 
 Spin treatment                             :    spin-polarised
 Spin-orbit coupling is included
 Global magnetic field (cartesian) :        0.00000000   0.00000000   0.00000000
 non-collinear magnetisation
 
 Number of Bravais lattice symmetries       :      48
 Number of crystal symmetries               :      48
 
 k-point grid                               :       4    4    4
 Total number of k-points                   :       8
 k-point set is reduced with crystal symmetries
 
 R^MT_min * |G+k|_max (rgkmax)              :       7.00000000
 Species with R^MT_min                      :       1 (Si)
 Maximum |G+k| for APW functions            :       3.33333333
 Maximum |G| for potential and density      :      12.00000000
 Polynomial order for pseudochg. density    :       9
 
 G-vector grid sizes                        :      30    30    30
 Total number of G-vectors                  :    7799
 
 Maximum angular momentum used for
     APW functions                          :       8
     computing H and O matrix elements      :       8
     potential and density                  :       8
     inner part of muffin-tin               :       2
 
 Total nuclear charge                       :     -28.00000000
 Total electronic charge                    :      28.00000000
 Total core charge                          :      20.00000000
 Total valence charge                       :       8.00000000
 
 Effective Wigner radius, r_s               :       1.32041916
 
 Number of empty states                     :      10
 Total number of valence states             :      30
 
 Maximum Hamiltonian size                   :     184
 Maximum number of plane-waves              :     176
 Total number of local-orbitals             :       8
 
 Exchange-correlation type                  :       3
     Perdew-Wang, Phys. Rev. B 45, 13244 (1992)
 
 Smearing scheme                            :    Gaussian
 Smearing width                             :       0.00100000
 
 Using multisecant Broyden potential mixing
 
++++++++++++++++++++++++++++++++++++++++++++++++++++++++++++++++++++++++++++++++
+ Ending initialization                                                        +
++++++++++++++++++++++++++++++++++++++++++++++++++++++++++++++++++++++++++++++++
 
********************************************************************************
* Groundstate module started                                                   *
********************************************************************************
 Output level for this task is set to high
 
++++++++++++++++++++++++++++++++++++++++++++++++++++++++++++++++++++++++++++++++
+ Self-consistent loop started                                                 +
++++++++++++++++++++++++++++++++++++++++++++++++++++++++++++++++++++++++++++++++
 Density and potential initialised from atomic data
 
 
++++++++++++++++++++++++++++++++++++++++++++++++++++++++++++++++++++++++++++++++
+ SCF iteration number :    1                                                  +
++++++++++++++++++++++++++++++++++++++++++++++++++++++++++++++++++++++++++++++++
 Total energy                               :      -579.07944532
 _______________________________________________________________
 Fermi energy                               :         0.17485821
 Kinetic energy                             :       578.36703027
 Coulomb energy                             :     -1117.71704960
 Exchange energy                            :       -37.58174889
 Correlation energy                         :        -2.14767711
 No external B-field energy in total energy
 Sum of eigenvalues                         :      -316.27789461
 Effective potential energy                 :      -894.64492488
 Coulomb potential energy                   :      -842.15648653
 xc potential energy                        :       -52.48843835
 xc effective B-field energy                :        -0.00000000
 External B-field energy                    :         0.00000000
 Hartree energy                             :       187.81303282
 Electron-nuclear energy                    :     -1217.78255218
 Nuclear-nuclear energy                     :       -87.74753025
 Madelung energy                            :      -696.63880634
 Core-electron kinetic energy               :         0.00000000
 
 DOS at Fermi energy (states/Ha/cell)       :         0.00000000
 
 Electron charges :
     core                                   :        20.00000000
     core leakage                           :         0.00463657
     valence                                :         8.00000000
     interstitial                           :         3.79220399
     charge in muffin-tin spheres :
                  atom     1    Si          :        12.10389801
                  atom     2    Si          :        12.10389801
     total charge in muffin-tins            :        24.20779601
     total charge                           :        28.00000000
 
 Moments :
     interstitial                 :     0.00000000    -0.00000000     0.00000000
     moment in muffin-tin spheres :
         atom     1    Si         :    -0.00000000    -0.00000000     0.00000000
         atom     2    Si         :    -0.00000000    -0.00000000     0.00000000
     total moment in muffin-tins  :    -0.00000000    -0.00000000     0.00000000
     total moment                 :     0.00000000    -0.00000000     0.00000000
 
 Estimated fundamental gap                  :         0.03831176
        valence-band maximum at    1      0.0000  0.0000  0.0000
     conduction-band minimum at    7      0.5000  0.5000  0.0000
 
 Wall time (seconds)                        :        20.13
 
++++++++++++++++++++++++++++++++++++++++++++++++++++++++++++++++++++++++++++++++
+ SCF iteration number :    2                                                  +
++++++++++++++++++++++++++++++++++++++++++++++++++++++++++++++++++++++++++++++++
 Total energy                               :      -578.65826153
 _______________________________________________________________
 Fermi energy                               :         0.18219065
 Kinetic energy                             :       578.65519391
 Coulomb energy                             :     -1117.59894999
 Exchange energy                            :       -37.56752245
 Correlation energy                         :        -2.14698300
 No external B-field energy in total energy
 Sum of eigenvalues                         :      -316.03594838
 Effective potential energy                 :      -894.69114229
 Coulomb potential energy                   :      -842.22240736
 xc potential energy                        :       -52.46873494
 xc effective B-field energy                :        -0.00000000
 External B-field energy                    :         0.00000000
 Hartree energy                             :       187.62901239
 Electron-nuclear energy                    :     -1217.48043214
 Nuclear-nuclear energy                     :       -87.74753025
 Madelung energy                            :      -696.48774631
 Core-electron kinetic energy               :         0.00000000
 
 DOS at Fermi energy (states/Ha/cell)       :         0.00000000
 
 Electron charges :
     core                                   :        20.00000000
     core leakage                           :         0.00464486
     valence                                :         8.00000000
     interstitial                           :         3.82623085
     charge in muffin-tin spheres :
                  atom     1    Si          :        12.08688457
                  atom     2    Si          :        12.08688457
     total charge in muffin-tins            :        24.17376915
     total charge                           :        28.00000000
 
 Moments :
     interstitial                 :    -0.00000000     0.00000000     0.00000000
     moment in muffin-tin spheres :
         atom     1    Si         :    -0.00000000    -0.00000000     0.00000000
         atom     2    Si         :    -0.00000000    -0.00000000     0.00000000
     total moment in muffin-tins  :    -0.00000000    -0.00000000     0.00000000
     total moment                 :    -0.00000000     0.00000000     0.00000000
 
 Estimated fundamental gap                  :         0.03260471
        valence-band maximum at    1      0.0000  0.0000  0.0000
     conduction-band minimum at    7      0.5000  0.5000  0.0000
 
 Wall time (seconds)                        :        33.15
 
 RMS change in effective potential (target) :  0.832002E-02  ( 0.100000E-05)
 Absolute change in total energy   (target) :  0.421184      ( 0.100000E-05)
 Charge distance                   (target) :  0.310967E-02  ( 0.100000E-04)
 
++++++++++++++++++++++++++++++++++++++++++++++++++++++++++++++++++++++++++++++++
+ SCF iteration number :    3                                                  +
++++++++++++++++++++++++++++++++++++++++++++++++++++++++++++++++++++++++++++++++
 Total energy                               :      -578.37930979
 _______________________________________________________________
 Fermi energy                               :         0.18752348
 Kinetic energy                             :       578.85184326
 Coulomb energy                             :     -1117.52662373
 Exchange energy                            :       -37.55803550
 Correlation energy                         :        -2.14649382
 No external B-field energy in total energy
 Sum of eigenvalues                         :      -315.88135453
 Effective potential energy                 :      -894.73319779
 Coulomb potential energy                   :      -842.27763042
 xc potential energy                        :       -52.45556737
 xc effective B-field energy                :        -0.00000000
 External B-field energy                    :         0.00000000
 Hartree energy                             :       187.50146306
 Electron-nuclear energy                    :     -1217.28055654
 Nuclear-nuclear energy                     :       -87.74753025
 Madelung energy                            :      -696.38780852
 Core-electron kinetic energy               :         0.00000000
 
 DOS at Fermi energy (states/Ha/cell)       :         0.00000000
 
 Electron charges :
     core                                   :        20.00000000
     core leakage                           :         0.00464495
     valence                                :         8.00000000
     interstitial                           :         3.85130498
     charge in muffin-tin spheres :
                  atom     1    Si          :        12.07434751
                  atom     2    Si          :        12.07434751
     total charge in muffin-tins            :        24.14869502
     total charge                           :        28.00000000
 
 Moments :
     interstitial                 :    -0.00000000     0.00000000    -0.00000000
     moment in muffin-tin spheres :
         atom     1    Si         :    -0.00000000     0.00000000    -0.00000000
         atom     2    Si         :    -0.00000000     0.00000000    -0.00000000
     total moment in muffin-tins  :    -0.00000000     0.00000000    -0.00000000
     total moment                 :    -0.00000000     0.00000000    -0.00000000
 
 Estimated fundamental gap                  :         0.02837161
        valence-band maximum at    1      0.0000  0.0000  0.0000
     conduction-band minimum at    7      0.5000  0.5000  0.0000
 
 Wall time (seconds)                        :        45.21
 
 RMS change in effective potential (target) :  0.541907E-02  ( 0.100000E-05)
 Absolute change in total energy   (target) :  0.278952      ( 0.100000E-05)
 Charge distance                   (target) :  0.230151E-02  ( 0.100000E-04)
 
++++++++++++++++++++++++++++++++++++++++++++++++++++++++++++++++++++++++++++++++
+ SCF iteration number :    4                                                  +
++++++++++++++++++++++++++++++++++++++++++++++++++++++++++++++++++++++++++++++++
 Total energy                               :      -578.10980258
 _______________________________________________________________
 Fermi energy                               :         0.19639957
 Kinetic energy                             :       579.06694948
 Coulomb energy                             :     -1117.48360622
 Exchange energy                            :       -37.54736439
 Correlation energy                         :        -2.14578145
 No external B-field energy in total energy
 Sum of eigenvalues                         :      -315.77706214
 Effective potential energy                 :      -894.84401162
 Coulomb potential energy                   :      -842.40342980
 xc potential energy                        :       -52.44058182
 xc effective B-field energy                :        -0.00000000
 External B-field energy                    :         0.00000000
 Hartree energy                             :       187.33264618
 Electron-nuclear energy                    :     -1217.06872215
 Nuclear-nuclear energy                     :       -87.74753025
 Madelung energy                            :      -696.28189132
 Core-electron kinetic energy               :         0.00000000
 
 DOS at Fermi energy (states/Ha/cell)       :         0.00000000
 
 Electron charges :
     core                                   :        20.00000000
     core leakage                           :         0.00460307
     valence                                :         8.00000000
     interstitial                           :         3.89315403
     charge in muffin-tin spheres :
                  atom     1    Si          :        12.05342299
                  atom     2    Si          :        12.05342299
     total charge in muffin-tins            :        24.10684597
     total charge                           :        28.00000000
 
 Moments :
     interstitial                 :     0.00000000    -0.00000000    -0.00000000
     moment in muffin-tin spheres :
         atom     1    Si         :    -0.00000000    -0.00000000    -0.00000000
         atom     2    Si         :    -0.00000000    -0.00000000    -0.00000000
     total moment in muffin-tins  :    -0.00000000    -0.00000000    -0.00000000
     total moment                 :     0.00000000    -0.00000000    -0.00000000
 
 Estimated fundamental gap                  :         0.02083980
        valence-band maximum at    1      0.0000  0.0000  0.0000
     conduction-band minimum at    7      0.5000  0.5000  0.0000
 
 Wall time (seconds)                        :        57.71
 
 RMS change in effective potential (target) :  0.308915E-03  ( 0.100000E-05)
 Absolute change in total energy   (target) :  0.269507      ( 0.100000E-05)
 Charge distance                   (target) :  0.401037E-02  ( 0.100000E-04)
 
++++++++++++++++++++++++++++++++++++++++++++++++++++++++++++++++++++++++++++++++
+ SCF iteration number :    5                                                  +
++++++++++++++++++++++++++++++++++++++++++++++++++++++++++++++++++++++++++++++++
 Total energy                               :      -578.07240476
 _______________________________________________________________
 Fermi energy                               :         0.19650893
 Kinetic energy                             :       579.08478473
 Coulomb energy                             :     -1117.46539233
 Exchange energy                            :       -37.54605142
 Correlation energy                         :        -2.14574574
 No external B-field energy in total energy
 Sum of eigenvalues                         :      -315.75221359
 Effective potential energy                 :      -894.83699832
 Coulomb potential energy                   :      -842.39820446
 xc potential energy                        :       -52.43879386
 xc effective B-field energy                :        -0.00000000
 External B-field energy                    :         0.00000000
 Hartree energy                             :       187.31965763
 Electron-nuclear energy                    :     -1217.03751972
 Nuclear-nuclear energy                     :       -87.74753025
 Madelung energy                            :      -696.26629010
 Core-electron kinetic energy               :         0.00000000
 
 DOS at Fermi energy (states/Ha/cell)       :         0.00000000
 
 Electron charges :
     core                                   :        20.00000000
     core leakage                           :         0.00460894
     valence                                :         8.00000000
     interstitial                           :         3.89407914
     charge in muffin-tin spheres :
                  atom     1    Si          :        12.05296043
                  atom     2    Si          :        12.05296043
     total charge in muffin-tins            :        24.10592086
     total charge                           :        28.00000000
 
 Moments :
     interstitial                 :    -0.00000000    -0.00000000     0.00000000
     moment in muffin-tin spheres :
         atom     1    Si         :    -0.00000000    -0.00000000     0.00000000
         atom     2    Si         :    -0.00000000    -0.00000000     0.00000000
     total moment in muffin-tins  :    -0.00000000    -0.00000000     0.00000000
     total moment                 :    -0.00000000    -0.00000000     0.00000000
 
 Estimated fundamental gap                  :         0.02075989
        valence-band maximum at    1      0.0000  0.0000  0.0000
     conduction-band minimum at    7      0.5000  0.5000  0.0000
 
 Wall time (seconds)                        :        71.45
 
 RMS change in effective potential (target) :  0.283228E-04  ( 0.100000E-05)
 Absolute change in total energy   (target) :  0.373978E-01  ( 0.100000E-05)
 Charge distance                   (target) :  0.821567E-04  ( 0.100000E-04)
 
++++++++++++++++++++++++++++++++++++++++++++++++++++++++++++++++++++++++++++++++
+ SCF iteration number :    6                                                  +
++++++++++++++++++++++++++++++++++++++++++++++++++++++++++++++++++++++++++++++++
 Total energy                               :      -578.07345925
 _______________________________________________________________
 Fermi energy                               :         0.19654717
 Kinetic energy                             :       579.08613356
 Coulomb energy                             :     -1117.46769021
 Exchange energy                            :       -37.54615654
 Correlation energy                         :        -2.14574606
 No external B-field energy in total energy
 Sum of eigenvalues                         :      -315.75270591
 Effective potential energy                 :      -894.83883947
 Coulomb potential energy                   :      -842.39990519
 xc potential energy                        :       -52.43893428
 xc effective B-field energy                :        -0.00000000
 External B-field energy                    :         0.00000000
 Hartree energy                             :       187.32025477
 Electron-nuclear energy                    :     -1217.04041473
 Nuclear-nuclear energy                     :       -87.74753025
 Madelung energy                            :      -696.26773761
 Core-electron kinetic energy               :         0.00000000
 
 DOS at Fermi energy (states/Ha/cell)       :         0.00000000
 
 Electron charges :
     core                                   :        20.00000000
     core leakage                           :         0.00460853
     valence                                :         8.00000000
     interstitial                           :         3.89421323
     charge in muffin-tin spheres :
                  atom     1    Si          :        12.05289338
                  atom     2    Si          :        12.05289338
     total charge in muffin-tins            :        24.10578677
     total charge                           :        28.00000000
 
 Moments :
     interstitial                 :    -0.00000000    -0.00000000     0.00000000
     moment in muffin-tin spheres :
         atom     1    Si         :    -0.00000000    -0.00000000     0.00000000
         atom     2    Si         :    -0.00000000    -0.00000000     0.00000000
     total moment in muffin-tins  :    -0.00000000    -0.00000000     0.00000000
     total moment                 :    -0.00000000    -0.00000000     0.00000000
 
 Estimated fundamental gap                  :         0.02073643
        valence-band maximum at    1      0.0000  0.0000  0.0000
     conduction-band minimum at    7      0.5000  0.5000  0.0000
 
 Wall time (seconds)                        :        86.34
 
 RMS change in effective potential (target) :  0.314264E-05  ( 0.100000E-05)
 Absolute change in total energy   (target) :  0.105448E-02  ( 0.100000E-05)
 Charge distance                   (target) :  0.189827E-04  ( 0.100000E-04)
 
++++++++++++++++++++++++++++++++++++++++++++++++++++++++++++++++++++++++++++++++
+ SCF iteration number :    7                                                  +
++++++++++++++++++++++++++++++++++++++++++++++++++++++++++++++++++++++++++++++++
 Total energy                               :      -578.07375342
 _______________________________________________________________
 Fermi energy                               :         0.19654181
 Kinetic energy                             :       579.08570317
 Coulomb energy                             :     -1117.46755283
 Exchange energy                            :       -37.54615728
 Correlation energy                         :        -2.14574649
 No external B-field energy in total energy
 Sum of eigenvalues                         :      -315.75292034
 Effective potential energy                 :      -894.83862351
 Coulomb potential energy                   :      -842.39968778
 xc potential energy                        :       -52.43893573
 xc effective B-field energy                :        -0.00000000
 External B-field energy                    :         0.00000000
 Hartree energy                             :       187.32033480
 Electron-nuclear energy                    :     -1217.04035738
 Nuclear-nuclear energy                     :       -87.74753025
 Madelung energy                            :      -696.26770894
 Core-electron kinetic energy               :         0.00000000
 
 DOS at Fermi energy (states/Ha/cell)       :         0.00000000
 
 Electron charges :
     core                                   :        20.00000000
     core leakage                           :         0.00460851
     valence                                :         8.00000000
     interstitial                           :         3.89417974
     charge in muffin-tin spheres :
                  atom     1    Si          :        12.05291013
                  atom     2    Si          :        12.05291013
     total charge in muffin-tins            :        24.10582026
     total charge                           :        28.00000000
 
 Moments :
     interstitial                 :    -0.00000000    -0.00000000     0.00000000
     moment in muffin-tin spheres :
         atom     1    Si         :    -0.00000000    -0.00000000    -0.00000000
         atom     2    Si         :    -0.00000000    -0.00000000    -0.00000000
     total moment in muffin-tins  :    -0.00000000    -0.00000000    -0.00000000
     total moment                 :    -0.00000000    -0.00000000     0.00000000
 
 Estimated fundamental gap                  :         0.02074089
        valence-band maximum at    1      0.0000  0.0000  0.0000
     conduction-band minimum at    7      0.5000  0.5000  0.0000
 
 Wall time (seconds)                        :        95.21
 
 RMS change in effective potential (target) :  0.298541E-06  ( 0.100000E-05)
 Absolute change in total energy   (target) :  0.294179E-03  ( 0.100000E-05)
 Charge distance                   (target) :  0.309559E-05  ( 0.100000E-04)
 
++++++++++++++++++++++++++++++++++++++++++++++++++++++++++++++++++++++++++++++++
+ SCF iteration number :    8                                                  +
++++++++++++++++++++++++++++++++++++++++++++++++++++++++++++++++++++++++++++++++
 Total energy                               :      -578.07371888
 _______________________________________________________________
 Fermi energy                               :         0.19654158
 Kinetic energy                             :       579.08571327
 Coulomb energy                             :     -1117.46752991
 Exchange energy                            :       -37.54615578
 Correlation energy                         :        -2.14574646
 No external B-field energy in total energy
 Sum of eigenvalues                         :      -315.75289819
 Effective potential energy                 :      -894.83861146
 Coulomb potential energy                   :      -842.39967776
 xc potential energy                        :       -52.43893370
 xc effective B-field energy                :        -0.00000000
 External B-field energy                    :         0.00000000
 Hartree energy                             :       187.32032190
 Electron-nuclear energy                    :     -1217.04032157
 Nuclear-nuclear energy                     :       -87.74753025
 Madelung energy                            :      -696.26769103
 Core-electron kinetic energy               :         0.00000000
 
 DOS at Fermi energy (states/Ha/cell)       :         0.00000000
 
 Electron charges :
     core                                   :        20.00000000
     core leakage                           :         0.00460852
     valence                                :         8.00000000
     interstitial                           :         3.89417969
     charge in muffin-tin spheres :
                  atom     1    Si          :        12.05291015
                  atom     2    Si          :        12.05291015
     total charge in muffin-tins            :        24.10582031
     total charge                           :        28.00000000
 
 Moments :
     interstitial                 :     0.00000000     0.00000000    -0.00000000
     moment in muffin-tin spheres :
         atom     1    Si         :     0.00000000     0.00000000    -0.00000000
         atom     2    Si         :     0.00000000     0.00000000    -0.00000000
     total moment in muffin-tins  :     0.00000000     0.00000000    -0.00000000
     total moment                 :     0.00000000     0.00000000    -0.00000000
 
 Estimated fundamental gap                  :         0.02074101
        valence-band maximum at    1      0.0000  0.0000  0.0000
     conduction-band minimum at    7      0.5000  0.5000  0.0000
 
 Wall time (seconds)                        :       109.94
 
 RMS change in effective potential (target) :  0.171950E-07  ( 0.100000E-05)
 Absolute change in total energy   (target) :  0.345456E-04  ( 0.100000E-05)
 Charge distance                   (target) :  0.119601E-06  ( 0.100000E-04)
 
++++++++++++++++++++++++++++++++++++++++++++++++++++++++++++++++++++++++++++++++
+ SCF iteration number :    9                                                  +
++++++++++++++++++++++++++++++++++++++++++++++++++++++++++++++++++++++++++++++++
 Total energy                               :      -578.07372034
 _______________________________________________________________
 Fermi energy                               :         0.19654160
 Kinetic energy                             :       579.08571334
 Coulomb energy                             :     -1117.46753136
 Exchange energy                            :       -37.54615586
 Correlation energy                         :        -2.14574646
 No external B-field energy in total energy
 Sum of eigenvalues                         :      -315.75289914
 Effective potential energy                 :      -894.83861248
 Coulomb potential energy                   :      -842.39967868
 xc potential energy                        :       -52.43893380
 xc effective B-field energy                :        -0.00000000
 External B-field energy                    :         0.00000000
 Hartree energy                             :       187.32032243
 Electron-nuclear energy                    :     -1217.04032354
 Nuclear-nuclear energy                     :       -87.74753025
 Madelung energy                            :      -696.26769202
 Core-electron kinetic energy               :         0.00000000
 
 DOS at Fermi energy (states/Ha/cell)       :         0.00000000
 
 Electron charges :
     core                                   :        20.00000000
     core leakage                           :         0.00460852
     valence                                :         8.00000000
     interstitial                           :         3.89417976
     charge in muffin-tin spheres :
                  atom     1    Si          :        12.05291012
                  atom     2    Si          :        12.05291012
     total charge in muffin-tins            :        24.10582024
     total charge                           :        28.00000000
 
 Moments :
     interstitial                 :     0.00000000    -0.00000000    -0.00000000
     moment in muffin-tin spheres :
         atom     1    Si         :    -0.00000000    -0.00000000    -0.00000000
         atom     2    Si         :    -0.00000000    -0.00000000    -0.00000000
     total moment in muffin-tins  :    -0.00000000    -0.00000000    -0.00000000
     total moment                 :     0.00000000    -0.00000000    -0.00000000
 
 Estimated fundamental gap                  :         0.02074100
        valence-band maximum at    1      0.0000  0.0000  0.0000
     conduction-band minimum at    7      0.5000  0.5000  0.0000
 
 Wall time (seconds)                        :       121.72
 
 RMS change in effective potential (target) :  0.716152E-09  ( 0.100000E-05)
 Absolute change in total energy   (target) :  0.145763E-05  ( 0.100000E-05)
 Charge distance                   (target) :  0.114914E-07  ( 0.100000E-04)
 
++++++++++++++++++++++++++++++++++++++++++++++++++++++++++++++++++++++++++++++++
+ SCF iteration number :   10                                                  +
++++++++++++++++++++++++++++++++++++++++++++++++++++++++++++++++++++++++++++++++
 Total energy                               :      -578.07372027
 _______________________________________________________________
 Fermi energy                               :         0.19654160
 Kinetic energy                             :       579.08571333
 Coulomb energy                             :     -1117.46753129
 Exchange energy                            :       -37.54615585
 Correlation energy                         :        -2.14574646
 No external B-field energy in total energy
 Sum of eigenvalues                         :      -315.75289911
 Effective potential energy                 :      -894.83861244
 Coulomb potential energy                   :      -842.39967864
 xc potential energy                        :       -52.43893380
 xc effective B-field energy                :        -0.00000000
 External B-field energy                    :         0.00000000
 Hartree energy                             :       187.32032240
 Electron-nuclear energy                    :     -1217.04032345
 Nuclear-nuclear energy                     :       -87.74753025
 Madelung energy                            :      -696.26769197
 Core-electron kinetic energy               :         0.00000000
 
 DOS at Fermi energy (states/Ha/cell)       :         0.00000000
 
 Electron charges :
     core                                   :        20.00000000
     core leakage                           :         0.00460852
     valence                                :         8.00000000
     interstitial                           :         3.89417976
     charge in muffin-tin spheres :
                  atom     1    Si          :        12.05291012
                  atom     2    Si          :        12.05291012
     total charge in muffin-tins            :        24.10582024
     total charge                           :        28.00000000
 
 Moments :
     interstitial                 :    -0.00000000    -0.00000000    -0.00000000
     moment in muffin-tin spheres :
         atom     1    Si         :     0.00000000    -0.00000000     0.00000000
         atom     2    Si         :     0.00000000    -0.00000000     0.00000000
     total moment in muffin-tins  :     0.00000000    -0.00000000     0.00000000
     total moment                 :    -0.00000000    -0.00000000    -0.00000000
 
 Estimated fundamental gap                  :         0.02074100
        valence-band maximum at    1      0.0000  0.0000  0.0000
     conduction-band minimum at    7      0.5000  0.5000  0.0000
 
 Wall time (seconds)                        :       135.64
 
 RMS change in effective potential (target) :  0.671269E-10  ( 0.100000E-05)
 Absolute change in total energy   (target) :  0.645300E-07  ( 0.100000E-05)
 Charge distance                   (target) :  0.205727E-09  ( 0.100000E-04)
 
++++++++++++++++++++++++++++++++++++++++++++++++++++++++++++++++++++++++++++++++
+ SCF iteration number :   11                                                  +
++++++++++++++++++++++++++++++++++++++++++++++++++++++++++++++++++++++++++++++++
 Total energy                               :      -578.07372028
 _______________________________________________________________
 Fermi energy                               :         0.19654160
 Kinetic energy                             :       579.08571333
 Coulomb energy                             :     -1117.46753130
 Exchange energy                            :       -37.54615585
 Correlation energy                         :        -2.14574646
 No external B-field energy in total energy
 Sum of eigenvalues                         :      -315.75289911
 Effective potential energy                 :      -894.83861244
 Coulomb potential energy                   :      -842.39967865
 xc potential energy                        :       -52.43893380
 xc effective B-field energy                :        -0.00000000
 External B-field energy                    :         0.00000000
 Hartree energy                             :       187.32032241
 Electron-nuclear energy                    :     -1217.04032346
 Nuclear-nuclear energy                     :       -87.74753025
 Madelung energy                            :      -696.26769198
 Core-electron kinetic energy               :         0.00000000
 
 DOS at Fermi energy (states/Ha/cell)       :         0.00000000
 
 Electron charges :
     core                                   :        20.00000000
     core leakage                           :         0.00460852
     valence                                :         8.00000000
     interstitial                           :         3.89417976
     charge in muffin-tin spheres :
                  atom     1    Si          :        12.05291012
                  atom     2    Si          :        12.05291012
     total charge in muffin-tins            :        24.10582024
     total charge                           :        28.00000000
 
 Moments :
     interstitial                 :     0.00000000    -0.00000000    -0.00000000
     moment in muffin-tin spheres :
         atom     1    Si         :    -0.00000000    -0.00000000     0.00000000
         atom     2    Si         :    -0.00000000    -0.00000000     0.00000000
     total moment in muffin-tins  :    -0.00000000    -0.00000000     0.00000000
     total moment                 :     0.00000000    -0.00000000    -0.00000000
 
 Estimated fundamental gap                  :         0.02074100
        valence-band maximum at    1      0.0000  0.0000  0.0000
     conduction-band minimum at    7      0.5000  0.5000  0.0000
 
 Wall time (seconds)                        :       146.97
 
 RMS change in effective potential (target) :  0.661196E-12  ( 0.100000E-05)
 Absolute change in total energy   (target) :  0.541661E-08  ( 0.100000E-05)
 Charge distance                   (target) :  0.186381E-10  ( 0.100000E-04)
                                                                                
++++++++++++++++++++++++++++++++++++++++++++++++++++++++++++++++++++++++++++++++
| Convergency criteria checked for the last 2 iterations                       +
| Convergence targets achieved. Performing final SCF iteration                 +
++++++++++++++++++++++++++++++++++++++++++++++++++++++++++++++++++++++++++++++++
 Total energy                               :      -578.07372028
 _______________________________________________________________
 Fermi energy                               :         0.19654160
 Kinetic energy                             :       579.08571333
 Coulomb energy                             :     -1117.46753130
 Exchange energy                            :       -37.54615585
 Correlation energy                         :        -2.14574646
 No external B-field energy in total energy
 Sum of eigenvalues                         :      -315.75289911
 Effective potential energy                 :      -894.83861244
 Coulomb potential energy                   :      -842.39967865
 xc potential energy                        :       -52.43893380
 xc effective B-field energy                :        -0.00000000
 External B-field energy                    :         0.00000000
 Hartree energy                             :       187.32032241
 Electron-nuclear energy                    :     -1217.04032346
 Nuclear-nuclear energy                     :       -87.74753025
 Madelung energy                            :      -696.26769198
 Core-electron kinetic energy               :         0.00000000
 
 DOS at Fermi energy (states/Ha/cell)       :         0.00000000
 
 Electron charges :
     core                                   :        20.00000000
     core leakage                           :         0.00460852
     valence                                :         8.00000000
     interstitial                           :         3.89417976
     charge in muffin-tin spheres :
                  atom     1    Si          :        12.05291012
                  atom     2    Si          :        12.05291012
     total charge in muffin-tins            :        24.10582024
     total charge                           :        28.00000000
 
 Moments :
     interstitial                 :    -0.00000000    -0.00000000    -0.00000000
     moment in muffin-tin spheres :
         atom     1    Si         :    -0.00000000    -0.00000000     0.00000000
         atom     2    Si         :    -0.00000000    -0.00000000     0.00000000
     total moment in muffin-tins  :    -0.00000000    -0.00000000     0.00000000
     total moment                 :    -0.00000000    -0.00000000    -0.00000000
 
 Estimated fundamental gap                  :         0.02074100
        valence-band maximum at    1      0.0000  0.0000  0.0000
     conduction-band minimum at    7      0.5000  0.5000  0.0000
 
++++++++++++++++++++++++++++++++++++++++++++++++++++++++++++++++++++++++++++++++
+ Self-consistent loop stopped                                                 +
++++++++++++++++++++++++++++++++++++++++++++++++++++++++++++++++++++++++++++++++
 STATE.OUT is written
 
********************************************************************************
* Groundstate module stopped                                                   *
********************************************************************************
 
--------------------------------------------------------------------------------
- Timings (seconds)                                                            -
--------------------------------------------------------------------------------
 Initialisation                             :         3.52
 Hamiltonian and overlap matrix set up      :         2.83
 First-variational secular equation         :        12.23
 Second-variational calculation             :        14.33
 Calculation of charge-density              :        10.54
 Calculation of potential                   :        76.13
 Muffin-tin manipulations                   :        36.32
 APW matching                               :         8.26
 Disk reads/writes                          :         1.37
 Mixing efforts                             :         0.04
 Solver of Dirac eqn.                       :         0.45
 Solver of rel. Schroedinger eqn.           :         0.34
 Total time spent in radial solvers         :         0.79
 
 Total time spent (seconds)                 :       139.47
================================================================================
| EXCITING NITROGEN-14 stopped                                                 =
================================================================================
