================================================================================
| EXCITING OXYGEN started                                                      =
| version hash id: be4a89c2a14ce99a3c396624e65655d1e0810315                    =
|                                                                              =
| compiler: ifort (IFORT) 19.0.0.117 20180804                                  =
|                                                                              =
|                                                                              =
| Date (DD-MM-YYYY) : 23-06-2022                                               =
| Time (hh:mm:ss)   : 16:41:40                                                 =
|                                                                              =
| All units are atomic (Hartree, Bohr, etc.)                                   =
================================================================================
 
********************************************************************************
* Ground-state run starting from atomic densities                              *
********************************************************************************
 
++++++++++++++++++++++++++++++++++++++++++++++++++++++++++++++++++++++++++++++++
+ Starting initialization                                                      +
++++++++++++++++++++++++++++++++++++++++++++++++++++++++++++++++++++++++++++++++
 
 Lattice vectors (cartesian) :
      5.1300000000      5.1300000000      0.0000000000
      5.1300000000      0.0000000000      5.1300000000
      0.0000000000      5.1300000000      5.1300000000
 
 Reciprocal lattice vectors (cartesian) :
      0.6123962288      0.6123962288     -0.6123962288
      0.6123962288     -0.6123962288      0.6123962288
     -0.6123962288      0.6123962288      0.6123962288
 
 Unit cell volume                           :     270.0113940000
 Brillouin zone volume                      :       0.9186657265
 
 Species :    1 (Si)
     parameters loaded from                 :    Si.xml
     name                                   :    silicon
     nuclear charge                         :     -14.00000000
     electronic charge                      :      14.00000000
     atomic mass                            :   51196.73454000
     muffin-tin radius                      :       2.10000000
     # of radial points in muffin-tin       :     300
 
     atomic positions (lattice) :
       1 :   0.00000000  0.00000000  0.00000000
       2 :   0.25000000  0.25000000  0.25000000
 
 Total number of atoms per unit cell        :       2
 
 Spin treatment                             :    spin-unpolarised
 
 Number of Bravais lattice symmetries       :      48
 Number of crystal symmetries               :      48
 
 k-point grid                               :       2    2    2
 Total number of k-points                   :       3
 k-point set is reduced with crystal symmetries
 
 R^MT_min * |G+k|_max (rgkmax)              :       7.00000000
 Species with R^MT_min                      :       1 (Si)
 Maximum |G+k| for APW functions            :       3.33333333
 Maximum |G| for potential and density      :      12.00000000
 Polynomial order for pseudochg. density    :       9
 
 G-vector grid sizes                        :      30    30    30
 Total number of G-vectors                  :    7799
 
 Maximum angular momentum used for
     APW functions                          :       8
     computing H and O matrix elements      :       8
     potential and density                  :       8
     inner part of muffin-tin               :       2
 
 Total nuclear charge                       :     -28.00000000
 Total electronic charge                    :      28.00000000
 Total core charge                          :      20.00000000
 Total valence charge                       :       8.00000000
 
 Effective Wigner radius, r_s               :       1.32041916
 
 Number of empty states                     :       5
 Total number of valence states             :      10
 
 Maximum Hamiltonian size                   :     182
 Maximum number of plane-waves              :     174
 Total number of local-orbitals             :       8
 
 Exchange-correlation type                  :       3
     Perdew-Wang, Phys. Rev. B 45, 13244 (1992)
 
 Smearing scheme                            :    Gaussian
 Smearing width                             :       0.00100000
 
 Using multisecant Broyden potential mixing
 
++++++++++++++++++++++++++++++++++++++++++++++++++++++++++++++++++++++++++++++++
+ Ending initialization                                                        +
++++++++++++++++++++++++++++++++++++++++++++++++++++++++++++++++++++++++++++++++
 
********************************************************************************
* Groundstate module started                                                   *
********************************************************************************
 Output level for this task is set to high
 
++++++++++++++++++++++++++++++++++++++++++++++++++++++++++++++++++++++++++++++++
+ Self-consistent loop started                                                 +
++++++++++++++++++++++++++++++++++++++++++++++++++++++++++++++++++++++++++++++++
 Density and potential initialised from atomic data
 
 
++++++++++++++++++++++++++++++++++++++++++++++++++++++++++++++++++++++++++++++++
+ SCF iteration number :    1                                                  +
++++++++++++++++++++++++++++++++++++++++++++++++++++++++++++++++++++++++++++++++
 Total energy                               :      -579.54916494
 _______________________________________________________________
 Fermi energy                               :         0.18828947
 Kinetic energy                             :       578.06860409
 Coulomb energy                             :     -1117.83950224
 Exchange energy                            :       -37.62779434
 Correlation energy                         :        -2.15047246
 Sum of eigenvalues                         :      -316.19761982
 Effective potential energy                 :      -894.26622392
 Coulomb potential energy                   :      -841.71342194
 xc potential energy                        :       -52.55280198
 Hartree energy                             :       188.37855006
 Electron-nuclear energy                    :     -1218.47052205
 Nuclear-nuclear energy                     :       -87.74753025
 Madelung energy                            :      -696.98279127
 Core-electron kinetic energy               :         0.00000000
 
 DOS at Fermi energy (states/Ha/cell)       :         0.00000000
 
 Electron charges :
     core                                   :        20.00000000
     core leakage                           :         0.00463657
     valence                                :         8.00000000
     interstitial                           :         3.69232650
     charge in muffin-tin spheres :
                  atom     1    Si          :        12.15383675
                  atom     2    Si          :        12.15383675
     total charge in muffin-tins            :        24.30767350
     total charge                           :        28.00000000
 
 Estimated fundamental gap                  :         0.03892996
        valence-band maximum at    1      0.0000  0.0000  0.0000
     conduction-band minimum at    3      0.5000  0.5000  0.0000
 
 Wall time (seconds)                        :         1.48
 
++++++++++++++++++++++++++++++++++++++++++++++++++++++++++++++++++++++++++++++++
+ SCF iteration number :    2                                                  +
++++++++++++++++++++++++++++++++++++++++++++++++++++++++++++++++++++++++++++++++
 Total energy                               :      -578.93468017
 _______________________________________________________________
 Fermi energy                               :         0.19468472
 Kinetic energy                             :       578.48760727
 Coulomb energy                             :     -1117.66487059
 Exchange energy                            :       -37.60787381
 Correlation energy                         :        -2.14954305
 Sum of eigenvalues                         :      -315.82109581
 Effective potential energy                 :      -894.30870308
 Coulomb potential energy                   :      -841.78344513
 xc potential energy                        :       -52.52525795
 Hartree energy                             :       188.13389521
 Electron-nuclear energy                    :     -1218.05123556
 Nuclear-nuclear energy                     :       -87.74753025
 Madelung energy                            :      -696.77314802
 Core-electron kinetic energy               :         0.00000000
 
 DOS at Fermi energy (states/Ha/cell)       :         0.00000000
 
 Electron charges :
     core                                   :        20.00000000
     core leakage                           :         0.00465859
     valence                                :         8.00000000
     interstitial                           :         3.73525026
     charge in muffin-tin spheres :
                  atom     1    Si          :        12.13237487
                  atom     2    Si          :        12.13237487
     total charge in muffin-tins            :        24.26474974
     total charge                           :        28.00000000
 
 Estimated fundamental gap                  :         0.03131593
        valence-band maximum at    1      0.0000  0.0000  0.0000
     conduction-band minimum at    3      0.5000  0.5000  0.0000
 
 Wall time (seconds)                        :         1.93
 
 RMS change in effective potential (target) :  0.225343E-01  ( 0.100000E-05)
 Absolute change in total energy   (target) :  0.614485      ( 0.100000E-05)
 Charge distance                   (target) :  0.387021E-02  ( 0.100000E-04)
 
++++++++++++++++++++++++++++++++++++++++++++++++++++++++++++++++++++++++++++++++
+ SCF iteration number :    3                                                  +
++++++++++++++++++++++++++++++++++++++++++++++++++++++++++++++++++++++++++++++++
 Total energy                               :      -578.51511150
 _______________________________________________________________
 Fermi energy                               :         0.19934613
 Kinetic energy                             :       578.78221418
 Coulomb energy                             :     -1117.55416579
 Exchange energy                            :       -37.59428429
 Correlation energy                         :        -2.14887559
 Sum of eigenvalues                         :      -315.56974484
 Effective potential energy                 :      -894.35195902
 Coulomb potential energy                   :      -841.84552715
 xc potential energy                        :       -52.50643187
 Hartree energy                             :       187.96110839
 Electron-nuclear energy                    :     -1217.76774394
 Nuclear-nuclear energy                     :       -87.74753025
 Madelung energy                            :      -696.63140221
 Core-electron kinetic energy               :         0.00000000
 
 DOS at Fermi energy (states/Ha/cell)       :         0.00000000
 
 Electron charges :
     core                                   :        20.00000000
     core leakage                           :         0.00466749
     valence                                :         8.00000000
     interstitial                           :         3.76752039
     charge in muffin-tin spheres :
                  atom     1    Si          :        12.11623980
                  atom     2    Si          :        12.11623980
     total charge in muffin-tins            :        24.23247961
     total charge                           :        28.00000000
 
 Estimated fundamental gap                  :         0.02560177
        valence-band maximum at    1      0.0000  0.0000  0.0000
     conduction-band minimum at    3      0.5000  0.5000  0.0000
 
 Wall time (seconds)                        :         2.38
 
 RMS change in effective potential (target) :  0.145366E-01  ( 0.100000E-05)
 Absolute change in total energy   (target) :  0.419569      ( 0.100000E-05)
 Charge distance                   (target) :  0.291388E-02  ( 0.100000E-04)
 
++++++++++++++++++++++++++++++++++++++++++++++++++++++++++++++++++++++++++++++++
+ SCF iteration number :    4                                                  +
++++++++++++++++++++++++++++++++++++++++++++++++++++++++++++++++++++++++++++++++
 Total energy                               :      -578.02422722
 _______________________________________________________________
 Fermi energy                               :         0.20733328
 Kinetic energy                             :       579.17285803
 Coulomb energy                             :     -1117.47175155
 Exchange energy                            :       -37.57750005
 Correlation energy                         :        -2.14783366
 Sum of eigenvalues                         :      -315.31865950
 Effective potential energy                 :      -894.49151754
 Coulomb potential energy                   :      -842.00857151
 xc potential energy                        :       -52.48294603
 Hartree energy                             :       187.71564979
 Electron-nuclear energy                    :     -1217.43987109
 Nuclear-nuclear energy                     :       -87.74753025
 Madelung energy                            :      -696.46746579
 Core-electron kinetic energy               :         0.00000000
 
 DOS at Fermi energy (states/Ha/cell)       :         0.00000000
 
 Electron charges :
     core                                   :        20.00000000
     core leakage                           :         0.00462941
     valence                                :         8.00000000
     interstitial                           :         3.82531598
     charge in muffin-tin spheres :
                  atom     1    Si          :        12.08734201
                  atom     2    Si          :        12.08734201
     total charge in muffin-tins            :        24.17468402
     total charge                           :        28.00000000
 
 Estimated fundamental gap                  :         0.01494942
        valence-band maximum at    1      0.0000  0.0000  0.0000
     conduction-band minimum at    3      0.5000  0.5000  0.0000
 
 Wall time (seconds)                        :         2.79
 
 RMS change in effective potential (target) :  0.804533E-03  ( 0.100000E-05)
 Absolute change in total energy   (target) :  0.490884      ( 0.100000E-05)
 Charge distance                   (target) :  0.536168E-02  ( 0.100000E-04)
 
++++++++++++++++++++++++++++++++++++++++++++++++++++++++++++++++++++++++++++++++
+ SCF iteration number :    5                                                  +
++++++++++++++++++++++++++++++++++++++++++++++++++++++++++++++++++++++++++++++++
 Total energy                               :      -577.98252490
 _______________________________________________________________
 Fermi energy                               :         0.20728483
 Kinetic energy                             :       579.18541334
 Coulomb energy                             :     -1117.44432445
 Exchange energy                            :       -37.57581315
 Correlation energy                         :        -2.14780064
 Sum of eigenvalues                         :      -315.29097871
 Effective potential energy                 :      -894.47639205
 Coulomb potential energy                   :      -841.99572937
 xc potential energy                        :       -52.48066268
 Hartree energy                             :       187.70106483
 Electron-nuclear energy                    :     -1217.39785903
 Nuclear-nuclear energy                     :       -87.74753025
 Madelung energy                            :      -696.44645976
 Core-electron kinetic energy               :         0.00000000
 
 DOS at Fermi energy (states/Ha/cell)       :         0.00000000
 
 Electron charges :
     core                                   :        20.00000000
     core leakage                           :         0.00463750
     valence                                :         8.00000000
     interstitial                           :         3.82546571
     charge in muffin-tin spheres :
                  atom     1    Si          :        12.08726715
                  atom     2    Si          :        12.08726715
     total charge in muffin-tins            :        24.17453429
     total charge                           :        28.00000000
 
 Estimated fundamental gap                  :         0.01501121
        valence-band maximum at    1      0.0000  0.0000  0.0000
     conduction-band minimum at    3      0.5000  0.5000  0.0000
 
 Wall time (seconds)                        :         3.21
 
 RMS change in effective potential (target) :  0.101399E-03  ( 0.100000E-05)
 Absolute change in total energy   (target) :  0.417023E-01  ( 0.100000E-05)
 Charge distance                   (target) :  0.908326E-04  ( 0.100000E-04)
 
++++++++++++++++++++++++++++++++++++++++++++++++++++++++++++++++++++++++++++++++
+ SCF iteration number :    6                                                  +
++++++++++++++++++++++++++++++++++++++++++++++++++++++++++++++++++++++++++++++++
 Total energy                               :      -577.98403240
 _______________________________________________________________
 Fermi energy                               :         0.20732829
 Kinetic energy                             :       579.18805080
 Coulomb energy                             :     -1117.44829032
 Exchange energy                            :       -37.57599165
 Correlation energy                         :        -2.14780123
 Sum of eigenvalues                         :      -315.29149917
 Effective potential energy                 :      -894.47954997
 Coulomb potential energy                   :      -841.99864881
 xc potential energy                        :       -52.48090116
 Hartree energy                             :       187.70211127
 Electron-nuclear energy                    :     -1217.40287134
 Nuclear-nuclear energy                     :       -87.74753025
 Madelung energy                            :      -696.44896592
 Core-electron kinetic energy               :         0.00000000
 
 DOS at Fermi energy (states/Ha/cell)       :         0.00000000
 
 Electron charges :
     core                                   :        20.00000000
     core leakage                           :         0.00463693
     valence                                :         8.00000000
     interstitial                           :         3.82568038
     charge in muffin-tin spheres :
                  atom     1    Si          :        12.08715981
                  atom     2    Si          :        12.08715981
     total charge in muffin-tins            :        24.17431962
     total charge                           :        28.00000000
 
 Estimated fundamental gap                  :         0.01497342
        valence-band maximum at    1      0.0000  0.0000  0.0000
     conduction-band minimum at    3      0.5000  0.5000  0.0000
 
 Wall time (seconds)                        :         3.64
 
 RMS change in effective potential (target) :  0.624720E-05  ( 0.100000E-05)
 Absolute change in total energy   (target) :  0.150749E-02  ( 0.100000E-05)
 Charge distance                   (target) :  0.301835E-04  ( 0.100000E-04)
 
++++++++++++++++++++++++++++++++++++++++++++++++++++++++++++++++++++++++++++++++
+ SCF iteration number :    7                                                  +
++++++++++++++++++++++++++++++++++++++++++++++++++++++++++++++++++++++++++++++++
 Total energy                               :      -577.98447136
 _______________________________________________________________
 Fermi energy                               :         0.20732551
 Kinetic energy                             :       579.18754661
 Coulomb energy                             :     -1117.44821903
 Exchange energy                            :       -37.57599719
 Correlation energy                         :        -2.14780175
 Sum of eigenvalues                         :      -315.29181992
 Effective potential energy                 :      -894.47936653
 Coulomb potential energy                   :      -841.99845742
 xc potential energy                        :       -52.48090911
 Hartree energy                             :       187.70223136
 Electron-nuclear energy                    :     -1217.40292015
 Nuclear-nuclear energy                     :       -87.74753025
 Madelung energy                            :      -696.44899032
 Core-electron kinetic energy               :         0.00000000
 
 DOS at Fermi energy (states/Ha/cell)       :         0.00000000
 
 Electron charges :
     core                                   :        20.00000000
     core leakage                           :         0.00463687
     valence                                :         8.00000000
     interstitial                           :         3.82564697
     charge in muffin-tin spheres :
                  atom     1    Si          :        12.08717651
                  atom     2    Si          :        12.08717651
     total charge in muffin-tins            :        24.17435303
     total charge                           :        28.00000000
 
 Estimated fundamental gap                  :         0.01497765
        valence-band maximum at    1      0.0000  0.0000  0.0000
     conduction-band minimum at    3      0.5000  0.5000  0.0000
 
 Wall time (seconds)                        :         4.07
 
 RMS change in effective potential (target) :  0.830957E-06  ( 0.100000E-05)
 Absolute change in total energy   (target) :  0.438960E-03  ( 0.100000E-05)
 Charge distance                   (target) :  0.280019E-05  ( 0.100000E-04)
 
++++++++++++++++++++++++++++++++++++++++++++++++++++++++++++++++++++++++++++++++
+ SCF iteration number :    8                                                  +
++++++++++++++++++++++++++++++++++++++++++++++++++++++++++++++++++++++++++++++++
 Total energy                               :      -577.98442493
 _______________________________________________________________
 Fermi energy                               :         0.20732530
 Kinetic energy                             :       579.18755925
 Coulomb energy                             :     -1117.44818733
 Exchange energy                            :       -37.57599513
 Correlation energy                         :        -2.14780171
 Sum of eigenvalues                         :      -315.29179070
 Effective potential energy                 :      -894.47934995
 Coulomb potential energy                   :      -841.99844363
 xc potential energy                        :       -52.48090633
 Hartree energy                             :       187.70221346
 Electron-nuclear energy                    :     -1217.40287055
 Nuclear-nuclear energy                     :       -87.74753025
 Madelung energy                            :      -696.44896552
 Core-electron kinetic energy               :         0.00000000
 
 DOS at Fermi energy (states/Ha/cell)       :         0.00000000
 
 Electron charges :
     core                                   :        20.00000000
     core leakage                           :         0.00463688
     valence                                :         8.00000000
     interstitial                           :         3.82564701
     charge in muffin-tin spheres :
                  atom     1    Si          :        12.08717650
                  atom     2    Si          :        12.08717650
     total charge in muffin-tins            :        24.17435299
     total charge                           :        28.00000000
 
 Estimated fundamental gap                  :         0.01497779
        valence-band maximum at    1      0.0000  0.0000  0.0000
     conduction-band minimum at    3      0.5000  0.5000  0.0000
 
 Wall time (seconds)                        :         4.52
 
 RMS change in effective potential (target) :  0.401647E-07  ( 0.100000E-05)
 Absolute change in total energy   (target) :  0.464331E-04  ( 0.100000E-05)
 Charge distance                   (target) :  0.147268E-06  ( 0.100000E-04)
 
++++++++++++++++++++++++++++++++++++++++++++++++++++++++++++++++++++++++++++++++
+ SCF iteration number :    9                                                  +
++++++++++++++++++++++++++++++++++++++++++++++++++++++++++++++++++++++++++++++++
 Total energy                               :      -577.98442640
 _______________________________________________________________
 Fermi energy                               :         0.20732531
 Kinetic energy                             :       579.18755960
 Coulomb energy                             :     -1117.44818906
 Exchange energy                            :       -37.57599522
 Correlation energy                         :        -2.14780171
 Sum of eigenvalues                         :      -315.29179161
 Effective potential energy                 :      -894.47935121
 Coulomb potential energy                   :      -841.99844477
 xc potential energy                        :       -52.48090645
 Hartree energy                             :       187.70221405
 Electron-nuclear energy                    :     -1217.40287287
 Nuclear-nuclear energy                     :       -87.74753025
 Madelung energy                            :      -696.44896668
 Core-electron kinetic energy               :         0.00000000
 
 DOS at Fermi energy (states/Ha/cell)       :         0.00000000
 
 Electron charges :
     core                                   :        20.00000000
     core leakage                           :         0.00463688
     valence                                :         8.00000000
     interstitial                           :         3.82564710
     charge in muffin-tin spheres :
                  atom     1    Si          :        12.08717645
                  atom     2    Si          :        12.08717645
     total charge in muffin-tins            :        24.17435290
     total charge                           :        28.00000000
 
 Estimated fundamental gap                  :         0.01497777
        valence-band maximum at    1      0.0000  0.0000  0.0000
     conduction-band minimum at    3      0.5000  0.5000  0.0000
 
 Wall time (seconds)                        :         4.95
 
 RMS change in effective potential (target) :  0.179565E-08  ( 0.100000E-05)
 Absolute change in total energy   (target) :  0.147059E-05  ( 0.100000E-05)
 Charge distance                   (target) :  0.136212E-07  ( 0.100000E-04)
 
++++++++++++++++++++++++++++++++++++++++++++++++++++++++++++++++++++++++++++++++
+ SCF iteration number :   10                                                  +
++++++++++++++++++++++++++++++++++++++++++++++++++++++++++++++++++++++++++++++++
 Total energy                               :      -577.98442632
 _______________________________________________________________
 Fermi energy                               :         0.20732531
 Kinetic energy                             :       579.18755960
 Coulomb energy                             :     -1117.44818899
 Exchange energy                            :       -37.57599522
 Correlation energy                         :        -2.14780171
 Sum of eigenvalues                         :      -315.29179157
 Effective potential energy                 :      -894.47935116
 Coulomb potential energy                   :      -841.99844472
 xc potential energy                        :       -52.48090644
 Hartree energy                             :       187.70221402
 Electron-nuclear energy                    :     -1217.40287276
 Nuclear-nuclear energy                     :       -87.74753025
 Madelung energy                            :      -696.44896662
 Core-electron kinetic energy               :         0.00000000
 
 DOS at Fermi energy (states/Ha/cell)       :         0.00000000
 
 Electron charges :
     core                                   :        20.00000000
     core leakage                           :         0.00463688
     valence                                :         8.00000000
     interstitial                           :         3.82564710
     charge in muffin-tin spheres :
                  atom     1    Si          :        12.08717645
                  atom     2    Si          :        12.08717645
     total charge in muffin-tins            :        24.17435290
     total charge                           :        28.00000000
 
 Estimated fundamental gap                  :         0.01497777
        valence-band maximum at    1      0.0000  0.0000  0.0000
     conduction-band minimum at    3      0.5000  0.5000  0.0000
 
 Wall time (seconds)                        :         5.39
 
 RMS change in effective potential (target) :  0.157596E-09  ( 0.100000E-05)
 Absolute change in total energy   (target) :  0.803161E-07  ( 0.100000E-05)
 Charge distance                   (target) :  0.253318E-09  ( 0.100000E-04)
 
++++++++++++++++++++++++++++++++++++++++++++++++++++++++++++++++++++++++++++++++
+ SCF iteration number :   11                                                  +
++++++++++++++++++++++++++++++++++++++++++++++++++++++++++++++++++++++++++++++++
 Total energy                               :      -577.98442632
 _______________________________________________________________
 Fermi energy                               :         0.20732531
 Kinetic energy                             :       579.18755960
 Coulomb energy                             :     -1117.44818899
 Exchange energy                            :       -37.57599522
 Correlation energy                         :        -2.14780171
 Sum of eigenvalues                         :      -315.29179157
 Effective potential energy                 :      -894.47935117
 Coulomb potential energy                   :      -841.99844473
 xc potential energy                        :       -52.48090644
 Hartree energy                             :       187.70221402
 Electron-nuclear energy                    :     -1217.40287277
 Nuclear-nuclear energy                     :       -87.74753025
 Madelung energy                            :      -696.44896663
 Core-electron kinetic energy               :         0.00000000
 
 DOS at Fermi energy (states/Ha/cell)       :         0.00000000
 
 Electron charges :
     core                                   :        20.00000000
     core leakage                           :         0.00463688
     valence                                :         8.00000000
     interstitial                           :         3.82564710
     charge in muffin-tin spheres :
                  atom     1    Si          :        12.08717645
                  atom     2    Si          :        12.08717645
     total charge in muffin-tins            :        24.17435290
     total charge                           :        28.00000000
 
 Estimated fundamental gap                  :         0.01497777
        valence-band maximum at    1      0.0000  0.0000  0.0000
     conduction-band minimum at    3      0.5000  0.5000  0.0000
 
 Wall time (seconds)                        :         5.86
 
 RMS change in effective potential (target) :  0.622971E-11  ( 0.100000E-05)
 Absolute change in total energy   (target) :  0.680575E-08  ( 0.100000E-05)
 Charge distance                   (target) :  0.237550E-10  ( 0.100000E-04)
                                                                                
++++++++++++++++++++++++++++++++++++++++++++++++++++++++++++++++++++++++++++++++
| Convergency criteria checked for the last 2 iterations                       +
| Convergence targets achieved. Performing final SCF iteration                 +
++++++++++++++++++++++++++++++++++++++++++++++++++++++++++++++++++++++++++++++++
 Total energy                               :      -577.98442632
 _______________________________________________________________
 Fermi energy                               :         0.20732531
 Kinetic energy                             :       579.18755960
 Coulomb energy                             :     -1117.44818899
 Exchange energy                            :       -37.57599522
 Correlation energy                         :        -2.14780171
 Sum of eigenvalues                         :      -315.29179157
 Effective potential energy                 :      -894.47935117
 Coulomb potential energy                   :      -841.99844473
 xc potential energy                        :       -52.48090644
 Hartree energy                             :       187.70221402
 Electron-nuclear energy                    :     -1217.40287277
 Nuclear-nuclear energy                     :       -87.74753025
 Madelung energy                            :      -696.44896663
 Core-electron kinetic energy               :         0.00000000
 
 DOS at Fermi energy (states/Ha/cell)       :         0.00000000
 
 Electron charges :
     core                                   :        20.00000000
     core leakage                           :         0.00463688
     valence                                :         8.00000000
     interstitial                           :         3.82564710
     charge in muffin-tin spheres :
                  atom     1    Si          :        12.08717645
                  atom     2    Si          :        12.08717645
     total charge in muffin-tins            :        24.17435290
     total charge                           :        28.00000000
 
 Estimated fundamental gap                  :         0.01497777
        valence-band maximum at    1      0.0000  0.0000  0.0000
     conduction-band minimum at    3      0.5000  0.5000  0.0000
 
++++++++++++++++++++++++++++++++++++++++++++++++++++++++++++++++++++++++++++++++
+ Self-consistent loop stopped                                                 +
++++++++++++++++++++++++++++++++++++++++++++++++++++++++++++++++++++++++++++++++
 STATE.OUT is written
 
********************************************************************************
* Groundstate module stopped                                                   *
********************************************************************************
 
--------------------------------------------------------------------------------
- Timings (seconds)                                                            -
--------------------------------------------------------------------------------
 Initialisation                             :         0.80
 Hamiltonian and overlap matrix set up      :         0.18
 First-variational secular equation         :         0.10
 Calculation of charge-density              :         0.21
 Calculation of potential                   :         1.51
 Muffin-tin manipulations                   :         2.22
 APW matching                               :         0.02
 Disk reads/writes                          :         1.37
 Mixing efforts                             :         0.01
 Solver of Dirac eqn.                       :         0.13
 Solver of rel. Schroedinger eqn.           :         0.08
 Total time spent in radial solvers         :         0.20
 
 Total time spent (seconds)                 :         5.63
================================================================================
| EXCITING OXYGEN stopped                                                      =
================================================================================
