================================================================================
| EXCITING NITROGEN-14 started                                                 =
| version hash id: 2c87b753305b27f0b9c56b0cc36f656efb4b35f2                    =
|                                                                              =
|                                                                              =
| Date (DD-MM-YYYY) : 21-12-2020                                               =
| Time (hh:mm:ss)   : 14:46:15                                                 =
|                                                                              =
| All units are atomic (Hartree, Bohr, etc.)                                   =
================================================================================
 
********************************************************************************
* Ground-state run starting from atomic densities                              *
********************************************************************************
 
++++++++++++++++++++++++++++++++++++++++++++++++++++++++++++++++++++++++++++++++
+ Starting initialization                                                      +
++++++++++++++++++++++++++++++++++++++++++++++++++++++++++++++++++++++++++++++++
 
 Lattice vectors (cartesian) :
      0.0000000000      4.1196029535      4.1196029535
      4.1196029535      0.0000000000      4.1196029535
      4.1196029535      4.1196029535      0.0000000000
 
 Reciprocal lattice vectors (cartesian) :
     -0.7625959805      0.7625959805      0.7625959805
      0.7625959805     -0.7625959805      0.7625959805
      0.7625959805      0.7625959805     -0.7625959805
 
 Unit cell volume                           :     139.8286221400
 Brillouin zone volume                      :       1.7739587907
 
 Automatic determination of muffin-tin radii :
     parameters                             :       0.2500000000      0.9500000000
 
 Species :    1 (Si)
     parameters loaded from                 :    Si.xml
     name                                   :    silicon
     nuclear charge                         :     -14.00000000
     electronic charge                      :      14.00000000
     atomic mass                            :   51196.73454000
     muffin-tin radius                      :       1.77680000
     # of radial points in muffin-tin       :     300
 
     atomic positions (lattice) :
       1 :   0.00000000  0.00000000  0.00000000
 
 Species :    2 (C)
     parameters loaded from                 :    C.xml
     name                                   :    carbon
     nuclear charge                         :      -6.00000000
     electronic charge                      :       6.00000000
     atomic mass                            :   21894.16673000
     muffin-tin radius                      :       1.61240000
     # of radial points in muffin-tin       :     250
 
     atomic positions (lattice) :
       1 :   0.25000000  0.25000000  0.25000000
 
 Total number of atoms per unit cell        :       2
 
 Spin treatment                             :    spin-unpolarised
 
 Number of Bravais lattice symmetries       :      48
 Number of crystal symmetries               :      24
 
 k-point grid                               :       4    4    4
 Total number of k-points                   :      10
 k-point set is reduced with crystal symmetries
 
 R^MT_min * |G+k|_max (rgkmax)              :       8.00000000
 Species with R^MT_min                      :       2 (C)
 Maximum |G+k| for APW functions            :       4.96154800
 Maximum |G| for potential and density      :      12.00000000
 
 G-vector grid sizes                        :      24    24    24
 Total number of G-vectors                  :    4015
 
 Maximum angular momentum used for
     APW functions                          :       8
     computing H and O matrix elements      :       8
     potential and density                  :       8
     inner part of muffin-tin               :       2
 
 Total nuclear charge                       :     -20.00000000
 Total electronic charge                    :      20.00000000
 Total core charge                          :      12.00000000
 Total valence charge                       :       8.00000000
 
 Number of empty states                     :      10
 Total number of valence states             :      15
 
 Maximum Hamiltonian size                   :     311
 Maximum number of plane-waves              :     303
 Total number of local-orbitals             :       8
 
 Exchange-correlation type                  :       2
     Perdew-Zunger, Phys. Rev. B 23, 5048 (1981)
 
 Smearing scheme                            :    Gaussian
 Smearing width                             :       0.00367500
 
 Using multisecant Broyden potential mixing
 
++++++++++++++++++++++++++++++++++++++++++++++++++++++++++++++++++++++++++++++++
+ Ending initialization                                                        +
++++++++++++++++++++++++++++++++++++++++++++++++++++++++++++++++++++++++++++++++
 
********************************************************************************
* Groundstate module started                                                   *
********************************************************************************
 Output level for this task is set to normal
 
++++++++++++++++++++++++++++++++++++++++++++++++++++++++++++++++++++++++++++++++
+ Self-consistent loop started                                                 +
++++++++++++++++++++++++++++++++++++++++++++++++++++++++++++++++++++++++++++++++
 Density and potential initialised from atomic data
 
 
++++++++++++++++++++++++++++++++++++++++++++++++++++++++++++++++++++++++++++++++
+ SCF iteration number :    1                                                  +
++++++++++++++++++++++++++++++++++++++++++++++++++++++++++++++++++++++++++++++++
 Total energy                               :      -327.47800998
 _______________________________________________________________
 Fermi energy                               :         0.28242923
 Kinetic energy                             :       326.72103056
 Coulomb energy                             :      -629.04329630
 Exchange energy                            :       -23.67277546
 Correlation energy                         :        -1.48296879
 
 DOS at Fermi energy (states/Ha/cell)       :         0.00000000
 
 Electron charges :
     core                                   :        12.00000000
     core leakage                           :         0.01220675
     valence                                :         8.00000000
     interstitial                           :         3.41913356
     charge in muffin-tin spheres :
                  atom     1    Si          :        11.11636154
                  atom     2     C          :         5.46450490
     total charge in muffin-tins            :        16.58086644
     total charge                           :        20.00000000
 
 Estimated fundamental gap                  :         0.13431890
        valence-band maximum at    1      0.0000  0.0000  0.0000
     conduction-band minimum at    8      0.5000  0.5000  0.0000
 
 Wall time (seconds)                        :         1.08
 
++++++++++++++++++++++++++++++++++++++++++++++++++++++++++++++++++++++++++++++++
+ SCF iteration number :    2                                                  +
++++++++++++++++++++++++++++++++++++++++++++++++++++++++++++++++++++++++++++++++
 Total energy                               :      -327.24223841
 _______________________________________________________________
 Fermi energy                               :         0.30436257
 Kinetic energy                             :       326.88369286
 Coulomb energy                             :      -629.04673431
 Exchange energy                            :       -23.60012929
 Correlation energy                         :        -1.47906767
 
 DOS at Fermi energy (states/Ha/cell)       :         0.00000000
 
 Electron charges :
     core                                   :        12.00000000
     core leakage                           :         0.01191390
     valence                                :         8.00000000
     interstitial                           :         3.61167304
     charge in muffin-tin spheres :
                  atom     1    Si          :        11.24421489
                  atom     2     C          :         5.14411208
     total charge in muffin-tins            :        16.38832696
     total charge                           :        20.00000000
 
 Estimated fundamental gap                  :         0.08536250
        valence-band maximum at    1      0.0000  0.0000  0.0000
     conduction-band minimum at    8      0.5000  0.5000  0.0000
 
 Wall time (seconds)                        :         1.69
 
 RMS change in effective potential (target) :  0.509784E-01  ( 0.100000E-05)
 Absolute change in total energy   (target) :  0.235772      ( 0.100000E-05)
 Charge distance                   (target) :  0.336049E-01  ( 0.100000E-04)
 
++++++++++++++++++++++++++++++++++++++++++++++++++++++++++++++++++++++++++++++++
+ SCF iteration number :    3                                                  +
++++++++++++++++++++++++++++++++++++++++++++++++++++++++++++++++++++++++++++++++
 Total energy                               :      -327.10065128
 _______________________________________________________________
 Fermi energy                               :         0.31385047
 Kinetic energy                             :       326.95840100
 Coulomb energy                             :      -629.01211594
 Exchange energy                            :       -23.56950749
 Correlation energy                         :        -1.47742884
 
 DOS at Fermi energy (states/Ha/cell)       :         0.00000000
 
 Electron charges :
     core                                   :        12.00000000
     core leakage                           :         0.01182060
     valence                                :         8.00000000
     interstitial                           :         3.69762854
     charge in muffin-tin spheres :
                  atom     1    Si          :        11.29761687
                  atom     2     C          :         5.00475459
     total charge in muffin-tins            :        16.30237146
     total charge                           :        20.00000000
 
 Estimated fundamental gap                  :         0.06347911
        valence-band maximum at    1      0.0000  0.0000  0.0000
     conduction-band minimum at    8      0.5000  0.5000  0.0000
 
 Wall time (seconds)                        :         2.31
 
 RMS change in effective potential (target) :  0.195360E-01  ( 0.100000E-05)
 Absolute change in total energy   (target) :  0.141587      ( 0.100000E-05)
 Charge distance                   (target) :  0.148399E-01  ( 0.100000E-04)
 
++++++++++++++++++++++++++++++++++++++++++++++++++++++++++++++++++++++++++++++++
+ SCF iteration number :    4                                                  +
++++++++++++++++++++++++++++++++++++++++++++++++++++++++++++++++++++++++++++++++
 Total energy                               :      -326.81362301
 _______________________________________________________________
 Fermi energy                               :         0.32053682
 Kinetic energy                             :       327.11014895
 Coulomb energy                             :      -628.90518634
 Exchange energy                            :       -23.54249211
 Correlation energy                         :        -1.47609351
 
 DOS at Fermi energy (states/Ha/cell)       :         0.00000000
 
 Electron charges :
     core                                   :        12.00000000
     core leakage                           :         0.01182574
     valence                                :         8.00000000
     interstitial                           :         3.76929759
     charge in muffin-tin spheres :
                  atom     1    Si          :        11.31746092
                  atom     2     C          :         4.91324149
     total charge in muffin-tins            :        16.23070241
     total charge                           :        20.00000000
 
 Estimated fundamental gap                  :         0.04486681
        valence-band maximum at    1      0.0000  0.0000  0.0000
     conduction-band minimum at    8      0.5000  0.5000  0.0000
 
 Wall time (seconds)                        :         2.93
 
 RMS change in effective potential (target) :  0.372967E-02  ( 0.100000E-05)
 Absolute change in total energy   (target) :  0.287028      ( 0.100000E-05)
 Charge distance                   (target) :  0.102247E-01  ( 0.100000E-04)
 
++++++++++++++++++++++++++++++++++++++++++++++++++++++++++++++++++++++++++++++++
+ SCF iteration number :    5                                                  +
++++++++++++++++++++++++++++++++++++++++++++++++++++++++++++++++++++++++++++++++
 Total energy                               :      -326.88089849
 _______________________________________________________________
 Fermi energy                               :         0.31920109
 Kinetic energy                             :       327.07098303
 Coulomb energy                             :      -628.92989221
 Exchange energy                            :       -23.54576161
 Correlation energy                         :        -1.47622770
 
 DOS at Fermi energy (states/Ha/cell)       :         0.00000000
 
 Electron charges :
     core                                   :        12.00000000
     core leakage                           :         0.01181266
     valence                                :         8.00000000
     interstitial                           :         3.76204983
     charge in muffin-tin spheres :
                  atom     1    Si          :        11.31668150
                  atom     2     C          :         4.92126867
     total charge in muffin-tins            :        16.23795017
     total charge                           :        20.00000000
 
 Estimated fundamental gap                  :         0.04571208
        valence-band maximum at    1      0.0000  0.0000  0.0000
     conduction-band minimum at    8      0.5000  0.5000  0.0000
 
 Wall time (seconds)                        :         3.55
 
 RMS change in effective potential (target) :  0.119408E-02  ( 0.100000E-05)
 Absolute change in total energy   (target) :  0.672755E-01  ( 0.100000E-05)
 Charge distance                   (target) :  0.831718E-03  ( 0.100000E-04)
 
++++++++++++++++++++++++++++++++++++++++++++++++++++++++++++++++++++++++++++++++
+ SCF iteration number :    6                                                  +
++++++++++++++++++++++++++++++++++++++++++++++++++++++++++++++++++++++++++++++++
 Total energy                               :      -326.86477024
 _______________________________________________________________
 Fermi energy                               :         0.31901891
 Kinetic energy                             :       327.07851395
 Coulomb energy                             :      -628.92114696
 Exchange energy                            :       -23.54588346
 Correlation energy                         :        -1.47625378
 
 DOS at Fermi energy (states/Ha/cell)       :         0.00000000
 
 Electron charges :
     core                                   :        12.00000000
     core leakage                           :         0.01182408
     valence                                :         8.00000000
     interstitial                           :         3.76022777
     charge in muffin-tin spheres :
                  atom     1    Si          :        11.31448770
                  atom     2     C          :         4.92528453
     total charge in muffin-tins            :        16.23977223
     total charge                           :        20.00000000
 
 Estimated fundamental gap                  :         0.04629866
        valence-band maximum at    1      0.0000  0.0000  0.0000
     conduction-band minimum at    8      0.5000  0.5000  0.0000
 
 Wall time (seconds)                        :         4.17
 
 RMS change in effective potential (target) :  0.996150E-04  ( 0.100000E-05)
 Absolute change in total energy   (target) :  0.161282E-01  ( 0.100000E-05)
 Charge distance                   (target) :  0.460340E-03  ( 0.100000E-04)
 
++++++++++++++++++++++++++++++++++++++++++++++++++++++++++++++++++++++++++++++++
+ SCF iteration number :    7                                                  +
++++++++++++++++++++++++++++++++++++++++++++++++++++++++++++++++++++++++++++++++
 Total energy                               :      -326.86690380
 _______________________________________________________________
 Fermi energy                               :         0.31898649
 Kinetic energy                             :       327.07824498
 Coulomb energy                             :      -628.92283145
 Exchange energy                            :       -23.54605731
 Correlation energy                         :        -1.47626003
 
 DOS at Fermi energy (states/Ha/cell)       :         0.00000000
 
 Electron charges :
     core                                   :        12.00000000
     core leakage                           :         0.01182319
     valence                                :         8.00000000
     interstitial                           :         3.75997958
     charge in muffin-tin spheres :
                  atom     1    Si          :        11.31431740
                  atom     2     C          :         4.92570302
     total charge in muffin-tins            :        16.24002042
     total charge                           :        20.00000000
 
 Estimated fundamental gap                  :         0.04636149
        valence-band maximum at    1      0.0000  0.0000  0.0000
     conduction-band minimum at    8      0.5000  0.5000  0.0000
 
 Wall time (seconds)                        :         4.79
 
 RMS change in effective potential (target) :  0.278827E-04  ( 0.100000E-05)
 Absolute change in total energy   (target) :  0.213356E-02  ( 0.100000E-05)
 Charge distance                   (target) :  0.483650E-04  ( 0.100000E-04)
 
++++++++++++++++++++++++++++++++++++++++++++++++++++++++++++++++++++++++++++++++
+ SCF iteration number :    8                                                  +
++++++++++++++++++++++++++++++++++++++++++++++++++++++++++++++++++++++++++++++++
 Total energy                               :      -326.86703185
 _______________________________________________________________
 Fermi energy                               :         0.31899128
 Kinetic energy                             :       327.07802661
 Coulomb energy                             :      -628.92276468
 Exchange energy                            :       -23.54603488
 Correlation energy                         :        -1.47625890
 
 DOS at Fermi energy (states/Ha/cell)       :         0.00000000
 
 Electron charges :
     core                                   :        12.00000000
     core leakage                           :         0.01182309
     valence                                :         8.00000000
     interstitial                           :         3.76003333
     charge in muffin-tin spheres :
                  atom     1    Si          :        11.31438525
                  atom     2     C          :         4.92558142
     total charge in muffin-tins            :        16.23996667
     total charge                           :        20.00000000
 
 Estimated fundamental gap                  :         0.04634439
        valence-band maximum at    1      0.0000  0.0000  0.0000
     conduction-band minimum at    8      0.5000  0.5000  0.0000
 
 Wall time (seconds)                        :         5.41
 
 RMS change in effective potential (target) :  0.102364E-05  ( 0.100000E-05)
 Absolute change in total energy   (target) :  0.128050E-03  ( 0.100000E-05)
 Charge distance                   (target) :  0.137566E-04  ( 0.100000E-04)
 
++++++++++++++++++++++++++++++++++++++++++++++++++++++++++++++++++++++++++++++++
+ SCF iteration number :    9                                                  +
++++++++++++++++++++++++++++++++++++++++++++++++++++++++++++++++++++++++++++++++
 Total energy                               :      -326.86700477
 _______________________________________________________________
 Fermi energy                               :         0.31899153
 Kinetic energy                             :       327.07805426
 Coulomb energy                             :      -628.92276536
 Exchange energy                            :       -23.54603477
 Correlation energy                         :        -1.47625889
 
 DOS at Fermi energy (states/Ha/cell)       :         0.00000000
 
 Electron charges :
     core                                   :        12.00000000
     core leakage                           :         0.01182310
     valence                                :         8.00000000
     interstitial                           :         3.76003432
     charge in muffin-tin spheres :
                  atom     1    Si          :        11.31438231
                  atom     2     C          :         4.92558337
     total charge in muffin-tins            :        16.23996568
     total charge                           :        20.00000000
 
 Estimated fundamental gap                  :         0.04634418
        valence-band maximum at    1      0.0000  0.0000  0.0000
     conduction-band minimum at    8      0.5000  0.5000  0.0000
 
 Wall time (seconds)                        :         6.03
 
 RMS change in effective potential (target) :  0.187340E-06  ( 0.100000E-05)
 Absolute change in total energy   (target) :  0.270790E-04  ( 0.100000E-05)
 Charge distance                   (target) :  0.432949E-06  ( 0.100000E-04)
 
++++++++++++++++++++++++++++++++++++++++++++++++++++++++++++++++++++++++++++++++
+ SCF iteration number :   10                                                  +
++++++++++++++++++++++++++++++++++++++++++++++++++++++++++++++++++++++++++++++++
 Total energy                               :      -326.86700763
 _______________________________________________________________
 Fermi energy                               :         0.31899145
 Kinetic energy                             :       327.07805137
 Coulomb energy                             :      -628.92276516
 Exchange energy                            :       -23.54603494
 Correlation energy                         :        -1.47625890
 
 DOS at Fermi energy (states/Ha/cell)       :         0.00000000
 
 Electron charges :
     core                                   :        12.00000000
     core leakage                           :         0.01182310
     valence                                :         8.00000000
     interstitial                           :         3.76003371
     charge in muffin-tin spheres :
                  atom     1    Si          :        11.31438220
                  atom     2     C          :         4.92558409
     total charge in muffin-tins            :        16.23996629
     total charge                           :        20.00000000
 
 Estimated fundamental gap                  :         0.04634432
        valence-band maximum at    1      0.0000  0.0000  0.0000
     conduction-band minimum at    8      0.5000  0.5000  0.0000
 
 Wall time (seconds)                        :         6.65
 
 RMS change in effective potential (target) :  0.480098E-08  ( 0.100000E-05)
 Absolute change in total energy   (target) :  0.285733E-05  ( 0.100000E-05)
 Charge distance                   (target) :  0.820069E-07  ( 0.100000E-04)
 
++++++++++++++++++++++++++++++++++++++++++++++++++++++++++++++++++++++++++++++++
+ SCF iteration number :   11                                                  +
++++++++++++++++++++++++++++++++++++++++++++++++++++++++++++++++++++++++++++++++
 Total energy                               :      -326.86700757
 _______________________________________________________________
 Fermi energy                               :         0.31899145
 Kinetic energy                             :       327.07805146
 Coulomb energy                             :      -628.92276520
 Exchange energy                            :       -23.54603493
 Correlation energy                         :        -1.47625890
 
 DOS at Fermi energy (states/Ha/cell)       :         0.00000000
 
 Electron charges :
     core                                   :        12.00000000
     core leakage                           :         0.01182310
     valence                                :         8.00000000
     interstitial                           :         3.76003372
     charge in muffin-tin spheres :
                  atom     1    Si          :        11.31438220
                  atom     2     C          :         4.92558408
     total charge in muffin-tins            :        16.23996628
     total charge                           :        20.00000000
 
 Estimated fundamental gap                  :         0.04634431
        valence-band maximum at    1      0.0000  0.0000  0.0000
     conduction-band minimum at    8      0.5000  0.5000  0.0000
 
 Wall time (seconds)                        :         7.28
 
 RMS change in effective potential (target) :  0.552031E-09  ( 0.100000E-05)
 Absolute change in total energy   (target) :  0.567279E-07  ( 0.100000E-05)
 Charge distance                   (target) :  0.191480E-08  ( 0.100000E-04)
 
++++++++++++++++++++++++++++++++++++++++++++++++++++++++++++++++++++++++++++++++
+ SCF iteration number :   12                                                  +
++++++++++++++++++++++++++++++++++++++++++++++++++++++++++++++++++++++++++++++++
 Total energy                               :      -326.86700758
 _______________________________________________________________
 Fermi energy                               :         0.31899145
 Kinetic energy                             :       327.07805146
 Coulomb energy                             :      -628.92276520
 Exchange energy                            :       -23.54603493
 Correlation energy                         :        -1.47625890
 
 DOS at Fermi energy (states/Ha/cell)       :         0.00000000
 
 Electron charges :
     core                                   :        12.00000000
     core leakage                           :         0.01182310
     valence                                :         8.00000000
     interstitial                           :         3.76003372
     charge in muffin-tin spheres :
                  atom     1    Si          :        11.31438220
                  atom     2     C          :         4.92558407
     total charge in muffin-tins            :        16.23996628
     total charge                           :        20.00000000
 
 Estimated fundamental gap                  :         0.04634431
        valence-band maximum at    1      0.0000  0.0000  0.0000
     conduction-band minimum at    8      0.5000  0.5000  0.0000
 
 Wall time (seconds)                        :         7.90
 
 RMS change in effective potential (target) :  0.146325E-10  ( 0.100000E-05)
 Absolute change in total energy   (target) :  0.543548E-08  ( 0.100000E-05)
 Charge distance                   (target) :  0.203356E-09  ( 0.100000E-04)
                                                                                
++++++++++++++++++++++++++++++++++++++++++++++++++++++++++++++++++++++++++++++++
| Convergency criteria checked for the last 2 iterations                       +
| Convergence targets achieved. Performing final SCF iteration                 +
++++++++++++++++++++++++++++++++++++++++++++++++++++++++++++++++++++++++++++++++
 Total energy                               :      -326.86700758
 _______________________________________________________________
 Fermi energy                               :         0.31899145
 Kinetic energy                             :       327.07805146
 Coulomb energy                             :      -628.92276520
 Exchange energy                            :       -23.54603493
 Correlation energy                         :        -1.47625890
 
 DOS at Fermi energy (states/Ha/cell)       :         0.00000000
 
 Electron charges :
     core                                   :        12.00000000
     core leakage                           :         0.01182310
     valence                                :         8.00000000
     interstitial                           :         3.76003372
     charge in muffin-tin spheres :
                  atom     1    Si          :        11.31438220
                  atom     2     C          :         4.92558407
     total charge in muffin-tins            :        16.23996628
     total charge                           :        20.00000000
 
 Estimated fundamental gap                  :         0.04634431
        valence-band maximum at    1      0.0000  0.0000  0.0000
     conduction-band minimum at    8      0.5000  0.5000  0.0000
 
++++++++++++++++++++++++++++++++++++++++++++++++++++++++++++++++++++++++++++++++
+ Self-consistent loop stopped                                                 +
++++++++++++++++++++++++++++++++++++++++++++++++++++++++++++++++++++++++++++++++
 STATE.OUT is written
 
********************************************************************************
* Groundstate module stopped                                                   *
********************************************************************************
 
 Total time spent (seconds)                 :         8.10
================================================================================
| EXCITING NITROGEN-14 stopped                                                 =
================================================================================
