================================================================================
| EXCITING OXYGEN started                                                      =
| version hash id: db1af6655483acc0d004c84381c13b590f8da658                    =
|                                                                              =
| compiler: ifort (IFORT) 19.0.0.117 20180804                                  =
|                                                                              =
|                                                                              =
| Date (DD-MM-YYYY) : 06-04-2022                                               =
| Time (hh:mm:ss)   : 12:51:35                                                 =
|                                                                              =
| All units are atomic (Hartree, Bohr, etc.)                                   =
================================================================================
 
********************************************************************************
* Ground-state run starting from atomic densities                              *
********************************************************************************
 
++++++++++++++++++++++++++++++++++++++++++++++++++++++++++++++++++++++++++++++++
+ Starting initialization                                                      +
++++++++++++++++++++++++++++++++++++++++++++++++++++++++++++++++++++++++++++++++
 
 Lattice vectors (cartesian) :
      3.4156800000      0.0000000000      3.4156800000
      0.0000000000      3.4156800000      3.4156800000
      3.4156800000      3.4156800000      0.0000000000
 
 Reciprocal lattice vectors (cartesian) :
      0.9197561404     -0.9197561404      0.9197561404
     -0.9197561404      0.9197561404      0.9197561404
      0.9197561404      0.9197561404     -0.9197561404
 
 Unit cell volume                           :      79.7005881032
 Brillouin zone volume                      :       3.1122758231
 
 Automatic determination of muffin-tin radii :
     global rmt scale                       :       0.9500000000
 
 Species :    1 (B)
     parameters loaded from                 :    B.xml
     name                                   :    boron
     nuclear charge                         :      -5.00000000
     electronic charge                      :       5.00000000
     atomic mass                            :   19707.24741000
     muffin-tin radius                      :       1.36040000
     # of radial points in muffin-tin       :     250
 
     atomic positions (lattice) :
       1 :   0.00000000  0.00000000  0.00000000
 
 Species :    2 (N)
     parameters loaded from                 :    N.xml
     name                                   :    nitrogen
     nuclear charge                         :      -7.00000000
     electronic charge                      :       7.00000000
     atomic mass                            :   25532.72506000
     muffin-tin radius                      :       1.44960000
     # of radial points in muffin-tin       :     250
 
     atomic positions (lattice) :
       1 :   0.25000000  0.25000000  0.25000000
 
 Total number of atoms per unit cell        :       2
 
 Spin treatment                             :    spin-unpolarised
 
 Number of Bravais lattice symmetries       :      48
 Number of crystal symmetries               :      24
 
 k-point grid                               :       3    3    3
 Total number of k-points                   :      27
 k-point set is not reduced
 
 R^MT_min * |G+k|_max (rgkmax)              :       7.00000000
 Species with R^MT_min                      :       1 (B)
 Maximum |G+k| for APW functions            :       5.14554543
 Maximum |G| for potential and density      :      16.00000000
 
 G-vector grid sizes                        :      25    25    25
 Total number of G-vectors                  :    5577
 
 Maximum angular momentum used for
     APW functions                          :       8
     computing H and O matrix elements      :       8
     potential and density                  :       8
     inner part of muffin-tin               :       2
 
 Total nuclear charge                       :     -12.00000000
 Total electronic charge                    :      12.00000000
 Total core charge                          :       4.00000000
 Total valence charge                       :       8.00000000
 
 Number of empty states                     :      30
 Total number of valence states             :      35
 
 Maximum Hamiltonian size                   :     194
 Maximum number of plane-waves              :     186
 Total number of local-orbitals             :       8
 
 Exchange-correlation type                  :      22
     PBEsol, Phys. Rev. Lett. 100, 136406 (2008)
     Generalised gradient approximation (GGA)
 
 Smearing scheme                            :    Gaussian
 Smearing width                             :       0.00100000
 
 Using multisecant Broyden potential mixing
 
++++++++++++++++++++++++++++++++++++++++++++++++++++++++++++++++++++++++++++++++
+ Ending initialization                                                        +
++++++++++++++++++++++++++++++++++++++++++++++++++++++++++++++++++++++++++++++++
 
********************************************************************************
* Groundstate module started                                                   *
********************************************************************************
 Output level for this task is set to normal
 
++++++++++++++++++++++++++++++++++++++++++++++++++++++++++++++++++++++++++++++++
+ Self-consistent loop started                                                 +
++++++++++++++++++++++++++++++++++++++++++++++++++++++++++++++++++++++++++++++++
 Density and potential initialised from atomic data
 
 
++++++++++++++++++++++++++++++++++++++++++++++++++++++++++++++++++++++++++++++++
+ SCF iteration number :    1                                                  +
++++++++++++++++++++++++++++++++++++++++++++++++++++++++++++++++++++++++++++++++
 Total energy                               :       -80.97504761
 _______________________________________________________________
 Fermi energy                               :         0.40786382
 Kinetic energy                             :        78.36849504
 Coulomb energy                             :      -148.50219206
 Exchange energy                            :       -10.35214596
 Correlation energy                         :        -0.48920464
 
 DOS at Fermi energy (states/Ha/cell)       :         0.00000000
 
 Electron charges :
     core                                   :         4.00000000
     core leakage                           :         0.00145760
     valence                                :         8.00000000
     interstitial                           :         3.00687752
     charge in muffin-tin spheres :
                  atom     1     B          :         2.98439487
                  atom     2     N          :         6.00872761
     total charge in muffin-tins            :         8.99312248
     total charge                           :        12.00000000
 
 Estimated fundamental gap                  :         0.26371186
        valence-band maximum at    1      0.0000  0.0000  0.0000
     conduction-band minimum at   21      0.6667  0.0000  0.6667
 
 Wall time (seconds)                        :         1.50
 
++++++++++++++++++++++++++++++++++++++++++++++++++++++++++++++++++++++++++++++++
+ SCF iteration number :    2                                                  +
++++++++++++++++++++++++++++++++++++++++++++++++++++++++++++++++++++++++++++++++
 Total energy                               :       -80.13685123
 _______________________________________________________________
 Fermi energy                               :         0.42870635
 Kinetic energy                             :        78.68847962
 Coulomb energy                             :      -148.05856569
 Exchange energy                            :       -10.27532647
 Correlation energy                         :        -0.49143869
 
 DOS at Fermi energy (states/Ha/cell)       :         0.00000000
 
 Electron charges :
     core                                   :         4.00000000
     core leakage                           :         0.00144951
     valence                                :         8.00000000
     interstitial                           :         3.11785315
     charge in muffin-tin spheres :
                  atom     1     B          :         3.05799383
                  atom     2     N          :         5.82415302
     total charge in muffin-tins            :         8.88214685
     total charge                           :        12.00000000
 
 Estimated fundamental gap                  :         0.22975033
        valence-band maximum at    1      0.0000  0.0000  0.0000
     conduction-band minimum at    9      0.6667  0.6667  0.0000
 
 Wall time (seconds)                        :         2.59
 
 RMS change in effective potential (target) :   1.16306      ( 0.100000E-05)
 Absolute change in total energy   (target) :  0.838196      ( 0.100000E-05)
 Charge distance                   (target) :  0.310664E-01  ( 0.100000E-04)
 
++++++++++++++++++++++++++++++++++++++++++++++++++++++++++++++++++++++++++++++++
+ SCF iteration number :    3                                                  +
++++++++++++++++++++++++++++++++++++++++++++++++++++++++++++++++++++++++++++++++
 Total energy                               :       -79.73894041
 _______________________________________________________________
 Fermi energy                               :         0.43958627
 Kinetic energy                             :        78.84433097
 Coulomb energy                             :      -147.84984964
 Exchange energy                            :       -10.24081362
 Correlation energy                         :        -0.49260812
 
 DOS at Fermi energy (states/Ha/cell)       :         0.00000000
 
 Electron charges :
     core                                   :         4.00000000
     core leakage                           :         0.00144832
     valence                                :         8.00000000
     interstitial                           :         3.17206601
     charge in muffin-tin spheres :
                  atom     1     B          :         3.08694305
                  atom     2     N          :         5.74099094
     total charge in muffin-tins            :         8.82793399
     total charge                           :        12.00000000
 
 Estimated fundamental gap                  :         0.21392652
        valence-band maximum at    1      0.0000  0.0000  0.0000
     conduction-band minimum at   13      0.0000  0.3333  0.3333
 
 Wall time (seconds)                        :         3.69
 
 RMS change in effective potential (target) :  0.852099      ( 0.100000E-05)
 Absolute change in total energy   (target) :  0.397911      ( 0.100000E-05)
 Charge distance                   (target) :  0.139780E-01  ( 0.100000E-04)
 
++++++++++++++++++++++++++++++++++++++++++++++++++++++++++++++++++++++++++++++++
+ SCF iteration number :    4                                                  +
++++++++++++++++++++++++++++++++++++++++++++++++++++++++++++++++++++++++++++++++
 Total energy                               :       -79.92661265
 _______________________________________________________________
 Fermi energy                               :         0.44061951
 Kinetic energy                             :        78.88604160
 Coulomb energy                             :      -148.04917623
 Exchange energy                            :       -10.27126631
 Correlation energy                         :        -0.49221171
 
 DOS at Fermi energy (states/Ha/cell)       :         0.00000000
 
 Electron charges :
     core                                   :         4.00000000
     core leakage                           :         0.00147500
     valence                                :         8.00000000
     interstitial                           :         3.14756388
     charge in muffin-tin spheres :
                  atom     1     B          :         3.00772295
                  atom     2     N          :         5.84471317
     total charge in muffin-tins            :         8.85243612
     total charge                           :        12.00000000
 
 Estimated fundamental gap                  :         0.22566352
        valence-band maximum at    1      0.0000  0.0000  0.0000
     conduction-band minimum at   11      0.3333  0.0000  0.3333
 
 Wall time (seconds)                        :         4.80
 
 RMS change in effective potential (target) :  0.804130E-01  ( 0.100000E-05)
 Absolute change in total energy   (target) :  0.187672      ( 0.100000E-05)
 Charge distance                   (target) :  0.208072E-01  ( 0.100000E-04)
 
++++++++++++++++++++++++++++++++++++++++++++++++++++++++++++++++++++++++++++++++
+ SCF iteration number :    5                                                  +
++++++++++++++++++++++++++++++++++++++++++++++++++++++++++++++++++++++++++++++++
 Total energy                               :       -79.28532304
 _______________________________________________________________
 Fermi energy                               :         0.45444344
 Kinetic energy                             :        79.06245653
 Coulomb energy                             :      -147.64798215
 Exchange energy                            :       -10.20565686
 Correlation energy                         :        -0.49414056
 
 DOS at Fermi energy (states/Ha/cell)       :         0.00000000
 
 Electron charges :
     core                                   :         4.00000000
     core leakage                           :         0.00145340
     valence                                :         8.00000000
     interstitial                           :         3.23874871
     charge in muffin-tin spheres :
                  atom     1     B          :         3.09707332
                  atom     2     N          :         5.66417796
     total charge in muffin-tins            :         8.76125129
     total charge                           :        12.00000000
 
 Estimated fundamental gap                  :         0.19597739
        valence-band maximum at    1      0.0000  0.0000  0.0000
     conduction-band minimum at   11      0.3333  0.0000  0.3333
 
 Wall time (seconds)                        :         5.90
 
 RMS change in effective potential (target) :  0.172977E-01  ( 0.100000E-05)
 Absolute change in total energy   (target) :  0.641290      ( 0.100000E-05)
 Charge distance                   (target) :  0.311083E-01  ( 0.100000E-04)
 
++++++++++++++++++++++++++++++++++++++++++++++++++++++++++++++++++++++++++++++++
+ SCF iteration number :    6                                                  +
++++++++++++++++++++++++++++++++++++++++++++++++++++++++++++++++++++++++++++++++
 Total energy                               :       -79.35616020
 _______________________________________________________________
 Fermi energy                               :         0.45306806
 Kinetic energy                             :        79.04852347
 Coulomb energy                             :      -147.69685494
 Exchange energy                            :       -10.21393359
 Correlation energy                         :        -0.49389514
 
 DOS at Fermi energy (states/Ha/cell)       :         0.00000000
 
 Electron charges :
     core                                   :         4.00000000
     core leakage                           :         0.00145847
     valence                                :         8.00000000
     interstitial                           :         3.22724376
     charge in muffin-tin spheres :
                  atom     1     B          :         3.08280296
                  atom     2     N          :         5.68995328
     total charge in muffin-tins            :         8.77275624
     total charge                           :        12.00000000
 
 Estimated fundamental gap                  :         0.20003798
        valence-band maximum at    1      0.0000  0.0000  0.0000
     conduction-band minimum at   13      0.0000  0.3333  0.3333
 
 Wall time (seconds)                        :         7.01
 
 RMS change in effective potential (target) :  0.268875E-02  ( 0.100000E-05)
 Absolute change in total energy   (target) :  0.708372E-01  ( 0.100000E-05)
 Charge distance                   (target) :  0.454024E-02  ( 0.100000E-04)
 
++++++++++++++++++++++++++++++++++++++++++++++++++++++++++++++++++++++++++++++++
+ SCF iteration number :    7                                                  +
++++++++++++++++++++++++++++++++++++++++++++++++++++++++++++++++++++++++++++++++
 Total energy                               :       -79.37212127
 _______________________________________________________________
 Fermi energy                               :         0.45268662
 Kinetic energy                             :        79.04284232
 Coulomb energy                             :      -147.70593743
 Exchange energy                            :       -10.21517220
 Correlation energy                         :        -0.49385397
 
 DOS at Fermi energy (states/Ha/cell)       :         0.00000000
 
 Electron charges :
     core                                   :         4.00000000
     core leakage                           :         0.00145805
     valence                                :         8.00000000
     interstitial                           :         3.22539067
     charge in muffin-tin spheres :
                  atom     1     B          :         3.08190617
                  atom     2     N          :         5.69270316
     total charge in muffin-tins            :         8.77460933
     total charge                           :        12.00000000
 
 Estimated fundamental gap                  :         0.20052461
        valence-band maximum at    1      0.0000  0.0000  0.0000
     conduction-band minimum at   11      0.3333  0.0000  0.3333
 
 Wall time (seconds)                        :         8.12
 
 RMS change in effective potential (target) :  0.228172E-03  ( 0.100000E-05)
 Absolute change in total energy   (target) :  0.159611E-01  ( 0.100000E-05)
 Charge distance                   (target) :  0.461413E-03  ( 0.100000E-04)
 
++++++++++++++++++++++++++++++++++++++++++++++++++++++++++++++++++++++++++++++++
+ SCF iteration number :    8                                                  +
++++++++++++++++++++++++++++++++++++++++++++++++++++++++++++++++++++++++++++++++
 Total energy                               :       -79.37341044
 _______________________________________________________________
 Fermi energy                               :         0.45265401
 Kinetic energy                             :        79.04250192
 Coulomb energy                             :      -147.70676296
 Exchange energy                            :       -10.21529909
 Correlation energy                         :        -0.49385030
 
 DOS at Fermi energy (states/Ha/cell)       :         0.00000000
 
 Electron charges :
     core                                   :         4.00000000
     core leakage                           :         0.00145812
     valence                                :         8.00000000
     interstitial                           :         3.22521170
     charge in muffin-tin spheres :
                  atom     1     B          :         3.08172577
                  atom     2     N          :         5.69306254
     total charge in muffin-tins            :         8.77478830
     total charge                           :        12.00000000
 
 Estimated fundamental gap                  :         0.20057697
        valence-band maximum at    1      0.0000  0.0000  0.0000
     conduction-band minimum at   11      0.3333  0.0000  0.3333
 
 Wall time (seconds)                        :         9.22
 
 RMS change in effective potential (target) :  0.198845E-04  ( 0.100000E-05)
 Absolute change in total energy   (target) :  0.128917E-02  ( 0.100000E-05)
 Charge distance                   (target) :  0.617164E-04  ( 0.100000E-04)
 
++++++++++++++++++++++++++++++++++++++++++++++++++++++++++++++++++++++++++++++++
+ SCF iteration number :    9                                                  +
++++++++++++++++++++++++++++++++++++++++++++++++++++++++++++++++++++++++++++++++
 Total energy                               :       -79.37341542
 _______________________________________________________________
 Fermi energy                               :         0.45265316
 Kinetic energy                             :        79.04250878
 Coulomb energy                             :      -147.70677137
 Exchange energy                            :       -10.21530261
 Correlation energy                         :        -0.49385022
 
 DOS at Fermi energy (states/Ha/cell)       :         0.00000000
 
 Electron charges :
     core                                   :         4.00000000
     core leakage                           :         0.00145812
     valence                                :         8.00000000
     interstitial                           :         3.22520693
     charge in muffin-tin spheres :
                  atom     1     B          :         3.08171367
                  atom     2     N          :         5.69307940
     total charge in muffin-tins            :         8.77479307
     total charge                           :        12.00000000
 
 Estimated fundamental gap                  :         0.20057914
        valence-band maximum at    1      0.0000  0.0000  0.0000
     conduction-band minimum at   21      0.6667  0.0000  0.6667
 
 Wall time (seconds)                        :        10.33
 
 RMS change in effective potential (target) :  0.386241E-05  ( 0.100000E-05)
 Absolute change in total energy   (target) :  0.497837E-05  ( 0.100000E-05)
 Charge distance                   (target) :  0.321694E-05  ( 0.100000E-04)
 
++++++++++++++++++++++++++++++++++++++++++++++++++++++++++++++++++++++++++++++++
+ SCF iteration number :   10                                                  +
++++++++++++++++++++++++++++++++++++++++++++++++++++++++++++++++++++++++++++++++
 Total energy                               :       -79.37341691
 _______________________________________________________________
 Fermi energy                               :         0.45265318
 Kinetic energy                             :        79.04250666
 Coulomb energy                             :      -147.70677134
 Exchange energy                            :       -10.21530199
 Correlation energy                         :        -0.49385024
 
 DOS at Fermi energy (states/Ha/cell)       :         0.00000000
 
 Electron charges :
     core                                   :         4.00000000
     core leakage                           :         0.00145812
     valence                                :         8.00000000
     interstitial                           :         3.22520778
     charge in muffin-tin spheres :
                  atom     1     B          :         3.08171621
                  atom     2     N          :         5.69307602
     total charge in muffin-tins            :         8.77479222
     total charge                           :        12.00000000
 
 Estimated fundamental gap                  :         0.20057860
        valence-band maximum at    1      0.0000  0.0000  0.0000
     conduction-band minimum at   25      0.0000  0.6667  0.6667
 
 Wall time (seconds)                        :        11.44
 
 RMS change in effective potential (target) :  0.429639E-06  ( 0.100000E-05)
 Absolute change in total energy   (target) :  0.149098E-05  ( 0.100000E-05)
 Charge distance                   (target) :  0.672862E-06  ( 0.100000E-04)
 
++++++++++++++++++++++++++++++++++++++++++++++++++++++++++++++++++++++++++++++++
+ SCF iteration number :   11                                                  +
++++++++++++++++++++++++++++++++++++++++++++++++++++++++++++++++++++++++++++++++
 Total energy                               :       -79.37341688
 _______________________________________________________________
 Fermi energy                               :         0.45265319
 Kinetic energy                             :        79.04250695
 Coulomb energy                             :      -147.70677153
 Exchange energy                            :       -10.21530205
 Correlation energy                         :        -0.49385024
 
 DOS at Fermi energy (states/Ha/cell)       :         0.00000000
 
 Electron charges :
     core                                   :         4.00000000
     core leakage                           :         0.00145812
     valence                                :         8.00000000
     interstitial                           :         3.22520771
     charge in muffin-tin spheres :
                  atom     1     B          :         3.08171595
                  atom     2     N          :         5.69307634
     total charge in muffin-tins            :         8.77479229
     total charge                           :        12.00000000
 
 Estimated fundamental gap                  :         0.20057864
        valence-band maximum at    1      0.0000  0.0000  0.0000
     conduction-band minimum at    9      0.6667  0.6667  0.0000
 
 Wall time (seconds)                        :        12.55
 
 RMS change in effective potential (target) :  0.259591E-07  ( 0.100000E-05)
 Absolute change in total energy   (target) :  0.318141E-07  ( 0.100000E-05)
 Charge distance                   (target) :  0.656789E-07  ( 0.100000E-04)
 
++++++++++++++++++++++++++++++++++++++++++++++++++++++++++++++++++++++++++++++++
+ SCF iteration number :   12                                                  +
++++++++++++++++++++++++++++++++++++++++++++++++++++++++++++++++++++++++++++++++
 Total energy                               :       -79.37341674
 _______________________________________________________________
 Fermi energy                               :         0.45265319
 Kinetic energy                             :        79.04250697
 Coulomb energy                             :      -147.70677143
 Exchange energy                            :       -10.21530204
 Correlation energy                         :        -0.49385024
 
 DOS at Fermi energy (states/Ha/cell)       :         0.00000000
 
 Electron charges :
     core                                   :         4.00000000
     core leakage                           :         0.00145812
     valence                                :         8.00000000
     interstitial                           :         3.22520773
     charge in muffin-tin spheres :
                  atom     1     B          :         3.08171598
                  atom     2     N          :         5.69307629
     total charge in muffin-tins            :         8.77479227
     total charge                           :        12.00000000
 
 Estimated fundamental gap                  :         0.20057863
        valence-band maximum at    1      0.0000  0.0000  0.0000
     conduction-band minimum at   21      0.6667  0.0000  0.6667
 
 Wall time (seconds)                        :        13.66
 
 RMS change in effective potential (target) :  0.179989E-08  ( 0.100000E-05)
 Absolute change in total energy   (target) :  0.144269E-06  ( 0.100000E-05)
 Charge distance                   (target) :  0.846449E-08  ( 0.100000E-04)
                                                                                
++++++++++++++++++++++++++++++++++++++++++++++++++++++++++++++++++++++++++++++++
| Convergency criteria checked for the last 2 iterations                       +
| Convergence targets achieved. Performing final SCF iteration                 +
++++++++++++++++++++++++++++++++++++++++++++++++++++++++++++++++++++++++++++++++
 Total energy                               :       -79.37341673
 _______________________________________________________________
 Fermi energy                               :         0.45265319
 Kinetic energy                             :        79.04250698
 Coulomb energy                             :      -147.70677143
 Exchange energy                            :       -10.21530204
 Correlation energy                         :        -0.49385024
 
 DOS at Fermi energy (states/Ha/cell)       :         0.00000000
 
 Electron charges :
     core                                   :         4.00000000
     core leakage                           :         0.00145812
     valence                                :         8.00000000
     interstitial                           :         3.22520773
     charge in muffin-tin spheres :
                  atom     1     B          :         3.08171598
                  atom     2     N          :         5.69307629
     total charge in muffin-tins            :         8.77479227
     total charge                           :        12.00000000
 
 Estimated fundamental gap                  :         0.20057863
        valence-band maximum at    1      0.0000  0.0000  0.0000
     conduction-band minimum at   21      0.6667  0.0000  0.6667
 
++++++++++++++++++++++++++++++++++++++++++++++++++++++++++++++++++++++++++++++++
+ Self-consistent loop stopped                                                 +
++++++++++++++++++++++++++++++++++++++++++++++++++++++++++++++++++++++++++++++++
 STATE.OUT is written
 
********************************************************************************
* Groundstate module stopped                                                   *
********************************************************************************
 
 Total time spent (seconds)                 :        12.17
================================================================================
| EXCITING OXYGEN stopped                                                      =
================================================================================
