================================================================================
| EXCITING OXYGEN started                                                      =
| version hash id: 6bf2ac0d748a00301ef9c05c175fc909c80415cb                    =
|                                                                              =
| compiler: ifort (IFORT) 19.0.0.117 20180804                                  =
|                                                                              =
|                                                                              =
| Date (DD-MM-YYYY) : 13-08-2021                                               =
| Time (hh:mm:ss)   : 15:20:23                                                 =
|                                                                              =
| All units are atomic (Hartree, Bohr, etc.)                                   =
================================================================================
 
********************************************************************************
* Ground-state run starting from atomic densities                              *
********************************************************************************
 
++++++++++++++++++++++++++++++++++++++++++++++++++++++++++++++++++++++++++++++++
+ Starting initialization                                                      +
++++++++++++++++++++++++++++++++++++++++++++++++++++++++++++++++++++++++++++++++
 
 Lattice vectors (cartesian) :
      5.1300000000      5.1300000000      0.0000000000
      5.1300000000      0.0000000000      5.1300000000
      0.0000000000      5.1300000000      5.1300000000
 
 Reciprocal lattice vectors (cartesian) :
      0.6123962288      0.6123962288     -0.6123962288
      0.6123962288     -0.6123962288      0.6123962288
     -0.6123962288      0.6123962288      0.6123962288
 
 Unit cell volume                           :     270.0113940000
 Brillouin zone volume                      :       0.9186657265
 
 Species :    1 (Si)
     parameters loaded from                 :    Si.xml
     name                                   :    silicon
     nuclear charge                         :     -14.00000000
     electronic charge                      :      14.00000000
     atomic mass                            :   51196.73454000
     muffin-tin radius                      :       2.10000000
     # of radial points in muffin-tin       :     300
 
     atomic positions (lattice) :
       1 :   0.00000000  0.00000000  0.00000000
       2 :   0.25000000  0.25000000  0.25000000
 
 Total number of atoms per unit cell        :       2
 
 Spin treatment                             :    spin-unpolarised
 
 Number of Bravais lattice symmetries       :      48
 Number of crystal symmetries               :      48
 
 k-point grid                               :       4    4    4
 Total number of k-points                   :       8
 k-point set is reduced with crystal symmetries
 
 R^MT_min * |G+k|_max (rgkmax)              :       7.00000000
 Species with R^MT_min                      :       1 (Si)
 Maximum |G+k| for APW functions            :       3.33333333
 Maximum |G| for potential and density      :      12.00000000
 Polynomial order for pseudochg. density    :       9
 
 G-vector grid sizes                        :      30    30    30
 Total number of G-vectors                  :    7799
 
 Maximum angular momentum used for
     APW functions                          :       8
     computing H and O matrix elements      :       8
     potential and density                  :       8
     inner part of muffin-tin               :       2
 
 Total nuclear charge                       :     -28.00000000
 Total electronic charge                    :      28.00000000
 Total core charge                          :      20.00000000
 Total valence charge                       :       8.00000000
 
 Effective Wigner radius, r_s               :       1.32041916
 
 Number of empty states                     :       5
 Total number of valence states             :      10
 
 Maximum Hamiltonian size                   :     184
 Maximum number of plane-waves              :     176
 Total number of local-orbitals             :       8
 
 Exchange-correlation type                  :       3
     Perdew-Wang, Phys. Rev. B 45, 13244 (1992)
 
 Smearing scheme                            :    Gaussian
 Smearing width                             :       0.00100000
 
 Using multisecant Broyden potential mixing
 
++++++++++++++++++++++++++++++++++++++++++++++++++++++++++++++++++++++++++++++++
+ Ending initialization                                                        +
++++++++++++++++++++++++++++++++++++++++++++++++++++++++++++++++++++++++++++++++
 
********************************************************************************
* Groundstate module started                                                   *
********************************************************************************
 Output level for this task is set to high
 
++++++++++++++++++++++++++++++++++++++++++++++++++++++++++++++++++++++++++++++++
+ Self-consistent loop started                                                 +
++++++++++++++++++++++++++++++++++++++++++++++++++++++++++++++++++++++++++++++++
 Density and potential initialised from atomic data
 
 
++++++++++++++++++++++++++++++++++++++++++++++++++++++++++++++++++++++++++++++++
+ SCF iteration number :    1                                                  +
++++++++++++++++++++++++++++++++++++++++++++++++++++++++++++++++++++++++++++++++
 Total energy                               :      -579.07230284
 _______________________________________________________________
 Fermi energy                               :         0.18828939
 Kinetic energy                             :       578.36508658
 Coulomb energy                             :     -1117.70863565
 Exchange energy                            :       -37.58109336
 Correlation energy                         :        -2.14766041
 Sum of eigenvalues                         :      -316.27787621
 Effective potential energy                 :      -894.64296279
 Coulomb potential energy                   :      -842.15541586
 xc potential energy                        :       -52.48754693
 Hartree energy                             :       187.80568955
 Electron-nuclear energy                    :     -1217.76679495
 Nuclear-nuclear energy                     :       -87.74753025
 Madelung energy                            :      -696.63092772
 Core-electron kinetic energy               :         0.00000000
 
 DOS at Fermi energy (states/Ha/cell)       :         0.00000000
 
 Electron charges :
     core                                   :        20.00000000
     core leakage                           :         0.00463657
     valence                                :         8.00000000
     interstitial                           :         3.79212162
     charge in muffin-tin spheres :
                  atom     1    Si          :        12.10393919
                  atom     2    Si          :        12.10393919
     total charge in muffin-tins            :        24.20787838
     total charge                           :        28.00000000
 
 Estimated fundamental gap                  :         0.03892994
        valence-band maximum at    1      0.0000  0.0000  0.0000
     conduction-band minimum at    7      0.5000  0.5000  0.0000
 
 Wall time (seconds)                        :         0.56
 
++++++++++++++++++++++++++++++++++++++++++++++++++++++++++++++++++++++++++++++++
+ SCF iteration number :    2                                                  +
++++++++++++++++++++++++++++++++++++++++++++++++++++++++++++++++++++++++++++++++
 Total energy                               :      -578.65264479
 _______________________________________________________________
 Fermi energy                               :         0.19276215
 Kinetic energy                             :       578.65194513
 Coulomb energy                             :     -1117.59075705
 Exchange energy                            :       -37.56686669
 Correlation energy                         :        -2.14696618
 Sum of eigenvalues                         :      -316.03763730
 Effective potential energy                 :      -894.68958242
 Coulomb potential energy                   :      -842.22173935
 xc potential energy                        :       -52.46784308
 Hartree energy                             :       187.62148746
 Electron-nuclear energy                    :     -1217.46471426
 Nuclear-nuclear energy                     :       -87.74753025
 Madelung energy                            :      -696.47988738
 Core-electron kinetic energy               :         0.00000000
 
 DOS at Fermi energy (states/Ha/cell)       :         0.00000000
 
 Electron charges :
     core                                   :        20.00000000
     core leakage                           :         0.00464447
     valence                                :         8.00000000
     interstitial                           :         3.82608050
     charge in muffin-tin spheres :
                  atom     1    Si          :        12.08695975
                  atom     2    Si          :        12.08695975
     total charge in muffin-tins            :        24.17391950
     total charge                           :        28.00000000
 
 Estimated fundamental gap                  :         0.03322366
        valence-band maximum at    1      0.0000  0.0000  0.0000
     conduction-band minimum at    7      0.5000  0.5000  0.0000
 
 Wall time (seconds)                        :         0.86
 
 RMS change in effective potential (target) :  0.166098E-01  ( 0.100000E-05)
 Absolute change in total energy   (target) :  0.419658      ( 0.100000E-05)
 Charge distance                   (target) :  0.310593E-02  ( 0.100000E-04)
 
++++++++++++++++++++++++++++++++++++++++++++++++++++++++++++++++++++++++++++++++
+ SCF iteration number :    3                                                  +
++++++++++++++++++++++++++++++++++++++++++++++++++++++++++++++++++++++++++++++++
 Total energy                               :      -578.37553285
 _______________________________________________________________
 Fermi energy                               :         0.19597275
 Kinetic energy                             :       578.84759632
 Coulomb energy                             :     -1117.51922401
 Exchange energy                            :       -37.55742706
 Correlation energy                         :        -2.14647809
 Sum of eigenvalues                         :      -315.88451938
 Effective potential energy                 :      -894.73211570
 Coulomb potential energy                   :      -842.27737595
 xc potential energy                        :       -52.45473974
 Hartree energy                             :       187.49431781
 Electron-nuclear energy                    :     -1217.26601157
 Nuclear-nuclear energy                     :       -87.74753025
 Madelung energy                            :      -696.38053603
 Core-electron kinetic energy               :         0.00000000
 
 DOS at Fermi energy (states/Ha/cell)       :         0.00000000
 
 Electron charges :
     core                                   :        20.00000000
     core leakage                           :         0.00464422
     valence                                :         8.00000000
     interstitial                           :         3.85110321
     charge in muffin-tin spheres :
                  atom     1    Si          :        12.07444839
                  atom     2    Si          :        12.07444839
     total charge in muffin-tins            :        24.14889679
     total charge                           :        28.00000000
 
 Estimated fundamental gap                  :         0.02899133
        valence-band maximum at    1      0.0000  0.0000  0.0000
     conduction-band minimum at    7      0.5000  0.5000  0.0000
 
 Wall time (seconds)                        :         1.17
 
 RMS change in effective potential (target) :  0.108280E-01  ( 0.100000E-05)
 Absolute change in total energy   (target) :  0.277112      ( 0.100000E-05)
 Charge distance                   (target) :  0.229829E-02  ( 0.100000E-04)
 
++++++++++++++++++++++++++++++++++++++++++++++++++++++++++++++++++++++++++++++++
+ SCF iteration number :    4                                                  +
++++++++++++++++++++++++++++++++++++++++++++++++++++++++++++++++++++++++++++++++
 Total energy                               :      -578.10785657
 _______________________________________________________________
 Fermi energy                               :         0.20106723
 Kinetic energy                             :       579.06075012
 Coulomb energy                             :     -1117.47608805
 Exchange energy                            :       -37.54675248
 Correlation energy                         :        -2.14576616
 Sum of eigenvalues                         :      -315.78210783
 Effective potential energy                 :      -894.84285794
 Coulomb potential energy                   :      -842.40310790
 xc potential energy                        :       -52.43975004
 Hartree energy                             :       187.32544990
 Electron-nuclear energy                    :     -1217.05400771
 Nuclear-nuclear energy                     :       -87.74753025
 Madelung energy                            :      -696.27453410
 Core-electron kinetic energy               :         0.00000000
 
 DOS at Fermi energy (states/Ha/cell)       :         0.00000000
 
 Electron charges :
     core                                   :        20.00000000
     core leakage                           :         0.00460199
     valence                                :         8.00000000
     interstitial                           :         3.89283396
     charge in muffin-tin spheres :
                  atom     1    Si          :        12.05358302
                  atom     2    Si          :        12.05358302
     total charge in muffin-tins            :        24.10716604
     total charge                           :        28.00000000
 
 Estimated fundamental gap                  :         0.02146531
        valence-band maximum at    1      0.0000  0.0000  0.0000
     conduction-band minimum at    7      0.5000  0.5000  0.0000
 
 Wall time (seconds)                        :         1.49
 
 RMS change in effective potential (target) :  0.575648E-03  ( 0.100000E-05)
 Absolute change in total energy   (target) :  0.267676      ( 0.100000E-05)
 Charge distance                   (target) :  0.400390E-02  ( 0.100000E-04)
 
++++++++++++++++++++++++++++++++++++++++++++++++++++++++++++++++++++++++++++++++
+ SCF iteration number :    5                                                  +
++++++++++++++++++++++++++++++++++++++++++++++++++++++++++++++++++++++++++++++++
 Total energy                               :      -578.07249969
 _______________________________________________________________
 Fermi energy                               :         0.20114053
 Kinetic energy                             :       579.07851062
 Coulomb energy                             :     -1117.45973635
 Exchange energy                            :       -37.54554206
 Correlation energy                         :        -2.14573190
 Sum of eigenvalues                         :      -315.75854794
 Effective potential energy                 :      -894.83705856
 Coulomb potential energy                   :      -842.39895826
 xc potential energy                        :       -52.43810030
 Hartree energy                             :       187.31324784
 Electron-nuclear energy                    :     -1217.02545394
 Nuclear-nuclear energy                     :       -87.74753025
 Madelung energy                            :      -696.26025721
 Core-electron kinetic energy               :         0.00000000
 
 DOS at Fermi energy (states/Ha/cell)       :         0.00000000
 
 Electron charges :
     core                                   :        20.00000000
     core leakage                           :         0.00460745
     valence                                :         8.00000000
     interstitial                           :         3.89379424
     charge in muffin-tin spheres :
                  atom     1    Si          :        12.05310288
                  atom     2    Si          :        12.05310288
     total charge in muffin-tins            :        24.10620576
     total charge                           :        28.00000000
 
 Estimated fundamental gap                  :         0.02137559
        valence-band maximum at    1      0.0000  0.0000  0.0000
     conduction-band minimum at    7      0.5000  0.5000  0.0000
 
 Wall time (seconds)                        :         1.80
 
 RMS change in effective potential (target) :  0.469160E-04  ( 0.100000E-05)
 Absolute change in total energy   (target) :  0.353569E-01  ( 0.100000E-05)
 Charge distance                   (target) :  0.825244E-04  ( 0.100000E-04)
 
++++++++++++++++++++++++++++++++++++++++++++++++++++++++++++++++++++++++++++++++
+ SCF iteration number :    6                                                  +
++++++++++++++++++++++++++++++++++++++++++++++++++++++++++++++++++++++++++++++++
 Total energy                               :      -578.07349957
 _______________________________________________________________
 Fermi energy                               :         0.20116380
 Kinetic energy                             :       579.07955639
 Coulomb energy                             :     -1117.46168992
 Exchange energy                            :       -37.54563374
 Correlation energy                         :        -2.14573230
 Sum of eigenvalues                         :      -315.75903384
 Effective potential energy                 :      -894.83859023
 Coulomb potential energy                   :      -842.40036733
 xc potential energy                        :       -52.43822290
 Hartree energy                             :       187.31379234
 Electron-nuclear energy                    :     -1217.02795202
 Nuclear-nuclear energy                     :       -87.74753025
 Madelung energy                            :      -696.26150625
 Core-electron kinetic energy               :         0.00000000
 
 DOS at Fermi energy (states/Ha/cell)       :         0.00000000
 
 Electron charges :
     core                                   :        20.00000000
     core leakage                           :         0.00460708
     valence                                :         8.00000000
     interstitial                           :         3.89390132
     charge in muffin-tin spheres :
                  atom     1    Si          :        12.05304934
                  atom     2    Si          :        12.05304934
     total charge in muffin-tins            :        24.10609868
     total charge                           :        28.00000000
 
 Estimated fundamental gap                  :         0.02135630
        valence-band maximum at    1      0.0000  0.0000  0.0000
     conduction-band minimum at    7      0.5000  0.5000  0.0000
 
 Wall time (seconds)                        :         2.11
 
 RMS change in effective potential (target) :  0.623952E-05  ( 0.100000E-05)
 Absolute change in total energy   (target) :  0.999884E-03  ( 0.100000E-05)
 Charge distance                   (target) :  0.157065E-04  ( 0.100000E-04)
 
++++++++++++++++++++++++++++++++++++++++++++++++++++++++++++++++++++++++++++++++
+ SCF iteration number :    7                                                  +
++++++++++++++++++++++++++++++++++++++++++++++++++++++++++++++++++++++++++++++++
 Total energy                               :      -578.07372586
 _______________________________________________________________
 Fermi energy                               :         0.20116070
 Kinetic energy                             :       579.07916715
 Coulomb energy                             :     -1117.46152806
 Exchange energy                            :       -37.54563230
 Correlation energy                         :        -2.14573266
 Sum of eigenvalues                         :      -315.75920334
 Effective potential energy                 :      -894.83837050
 Coulomb potential energy                   :      -842.40014914
 xc potential energy                        :       -52.43822136
 Hartree energy                             :       187.31384867
 Electron-nuclear energy                    :     -1217.02784649
 Nuclear-nuclear energy                     :       -87.74753025
 Madelung energy                            :      -696.26145349
 Core-electron kinetic energy               :         0.00000000
 
 DOS at Fermi energy (states/Ha/cell)       :         0.00000000
 
 Electron charges :
     core                                   :        20.00000000
     core leakage                           :         0.00460707
     valence                                :         8.00000000
     interstitial                           :         3.89387007
     charge in muffin-tin spheres :
                  atom     1    Si          :        12.05306496
                  atom     2    Si          :        12.05306496
     total charge in muffin-tins            :        24.10612993
     total charge                           :        28.00000000
 
 Estimated fundamental gap                  :         0.02136061
        valence-band maximum at    1      0.0000  0.0000  0.0000
     conduction-band minimum at    7      0.5000  0.5000  0.0000
 
 Wall time (seconds)                        :         2.42
 
 RMS change in effective potential (target) :  0.510408E-06  ( 0.100000E-05)
 Absolute change in total energy   (target) :  0.226289E-03  ( 0.100000E-05)
 Charge distance                   (target) :  0.301189E-05  ( 0.100000E-04)
 
++++++++++++++++++++++++++++++++++++++++++++++++++++++++++++++++++++++++++++++++
+ SCF iteration number :    8                                                  +
++++++++++++++++++++++++++++++++++++++++++++++++++++++++++++++++++++++++++++++++
 Total energy                               :      -578.07369586
 _______________________________________________________________
 Fermi energy                               :         0.20116053
 Kinetic energy                             :       579.07917632
 Coulomb energy                             :     -1117.46150853
 Exchange energy                            :       -37.54563101
 Correlation energy                         :        -2.14573264
 Sum of eigenvalues                         :      -315.75918394
 Effective potential energy                 :      -894.83836027
 Coulomb potential energy                   :      -842.40014064
 xc potential energy                        :       -52.43821962
 Hartree energy                             :       187.31383764
 Electron-nuclear energy                    :     -1217.02781592
 Nuclear-nuclear energy                     :       -87.74753025
 Madelung energy                            :      -696.26143821
 Core-electron kinetic energy               :         0.00000000
 
 DOS at Fermi energy (states/Ha/cell)       :         0.00000000
 
 Electron charges :
     core                                   :        20.00000000
     core leakage                           :         0.00460708
     valence                                :         8.00000000
     interstitial                           :         3.89386999
     charge in muffin-tin spheres :
                  atom     1    Si          :        12.05306501
                  atom     2    Si          :        12.05306501
     total charge in muffin-tins            :        24.10613001
     total charge                           :        28.00000000
 
 Estimated fundamental gap                  :         0.02136073
        valence-band maximum at    1      0.0000  0.0000  0.0000
     conduction-band minimum at    7      0.5000  0.5000  0.0000
 
 Wall time (seconds)                        :         2.74
 
 RMS change in effective potential (target) :  0.325596E-07  ( 0.100000E-05)
 Absolute change in total energy   (target) :  0.300065E-04  ( 0.100000E-05)
 Charge distance                   (target) :  0.110752E-06  ( 0.100000E-04)
 
++++++++++++++++++++++++++++++++++++++++++++++++++++++++++++++++++++++++++++++++
+ SCF iteration number :    9                                                  +
++++++++++++++++++++++++++++++++++++++++++++++++++++++++++++++++++++++++++++++++
 Total energy                               :      -578.07369728
 _______________________________________________________________
 Fermi energy                               :         0.20116054
 Kinetic energy                             :       579.07917633
 Coulomb energy                             :     -1117.46150989
 Exchange energy                            :       -37.54563108
 Correlation energy                         :        -2.14573264
 Sum of eigenvalues                         :      -315.75918490
 Effective potential energy                 :      -894.83836122
 Coulomb potential energy                   :      -842.40014150
 xc potential energy                        :       -52.43821972
 Hartree energy                             :       187.31383814
 Electron-nuclear energy                    :     -1217.02781778
 Nuclear-nuclear energy                     :       -87.74753025
 Madelung energy                            :      -696.26143914
 Core-electron kinetic energy               :         0.00000000
 
 DOS at Fermi energy (states/Ha/cell)       :         0.00000000
 
 Electron charges :
     core                                   :        20.00000000
     core leakage                           :         0.00460708
     valence                                :         8.00000000
     interstitial                           :         3.89387006
     charge in muffin-tin spheres :
                  atom     1    Si          :        12.05306497
                  atom     2    Si          :        12.05306497
     total charge in muffin-tins            :        24.10612994
     total charge                           :        28.00000000
 
 Estimated fundamental gap                  :         0.02136071
        valence-band maximum at    1      0.0000  0.0000  0.0000
     conduction-band minimum at    7      0.5000  0.5000  0.0000
 
 Wall time (seconds)                        :         3.05
 
 RMS change in effective potential (target) :  0.168578E-08  ( 0.100000E-05)
 Absolute change in total energy   (target) :  0.142869E-05  ( 0.100000E-05)
 Charge distance                   (target) :  0.111800E-07  ( 0.100000E-04)
 
++++++++++++++++++++++++++++++++++++++++++++++++++++++++++++++++++++++++++++++++
+ SCF iteration number :   10                                                  +
++++++++++++++++++++++++++++++++++++++++++++++++++++++++++++++++++++++++++++++++
 Total energy                               :      -578.07369720
 _______________________________________________________________
 Fermi energy                               :         0.20116054
 Kinetic energy                             :       579.07917634
 Coulomb energy                             :     -1117.46150982
 Exchange energy                            :       -37.54563108
 Correlation energy                         :        -2.14573264
 Sum of eigenvalues                         :      -315.75918485
 Effective potential energy                 :      -894.83836119
 Coulomb potential energy                   :      -842.40014147
 xc potential energy                        :       -52.43821971
 Hartree energy                             :       187.31383810
 Electron-nuclear energy                    :     -1217.02781768
 Nuclear-nuclear energy                     :       -87.74753025
 Madelung energy                            :      -696.26143908
 Core-electron kinetic energy               :         0.00000000
 
 DOS at Fermi energy (states/Ha/cell)       :         0.00000000
 
 Electron charges :
     core                                   :        20.00000000
     core leakage                           :         0.00460708
     valence                                :         8.00000000
     interstitial                           :         3.89387006
     charge in muffin-tin spheres :
                  atom     1    Si          :        12.05306497
                  atom     2    Si          :        12.05306497
     total charge in muffin-tins            :        24.10612994
     total charge                           :        28.00000000
 
 Estimated fundamental gap                  :         0.02136071
        valence-band maximum at    1      0.0000  0.0000  0.0000
     conduction-band minimum at    7      0.5000  0.5000  0.0000
 
 Wall time (seconds)                        :         3.37
 
 RMS change in effective potential (target) :  0.145581E-09  ( 0.100000E-05)
 Absolute change in total energy   (target) :  0.841701E-07  ( 0.100000E-05)
 Charge distance                   (target) :  0.230755E-09  ( 0.100000E-04)
 
++++++++++++++++++++++++++++++++++++++++++++++++++++++++++++++++++++++++++++++++
+ SCF iteration number :   11                                                  +
++++++++++++++++++++++++++++++++++++++++++++++++++++++++++++++++++++++++++++++++
 Total energy                               :      -578.07369721
 _______________________________________________________________
 Fermi energy                               :         0.20116054
 Kinetic energy                             :       579.07917634
 Coulomb energy                             :     -1117.46150982
 Exchange energy                            :       -37.54563108
 Correlation energy                         :        -2.14573264
 Sum of eigenvalues                         :      -315.75918485
 Effective potential energy                 :      -894.83836119
 Coulomb potential energy                   :      -842.40014147
 xc potential energy                        :       -52.43821971
 Hartree energy                             :       187.31383811
 Electron-nuclear energy                    :     -1217.02781769
 Nuclear-nuclear energy                     :       -87.74753025
 Madelung energy                            :      -696.26143909
 Core-electron kinetic energy               :         0.00000000
 
 DOS at Fermi energy (states/Ha/cell)       :         0.00000000
 
 Electron charges :
     core                                   :        20.00000000
     core leakage                           :         0.00460708
     valence                                :         8.00000000
     interstitial                           :         3.89387006
     charge in muffin-tin spheres :
                  atom     1    Si          :        12.05306497
                  atom     2    Si          :        12.05306497
     total charge in muffin-tins            :        24.10612994
     total charge                           :        28.00000000
 
 Estimated fundamental gap                  :         0.02136071
        valence-band maximum at    1      0.0000  0.0000  0.0000
     conduction-band minimum at    7      0.5000  0.5000  0.0000
 
 Wall time (seconds)                        :         3.68
 
 RMS change in effective potential (target) :  0.336584E-11  ( 0.100000E-05)
 Absolute change in total energy   (target) :  0.641637E-08  ( 0.100000E-05)
 Charge distance                   (target) :  0.231199E-10  ( 0.100000E-04)
                                                                                
++++++++++++++++++++++++++++++++++++++++++++++++++++++++++++++++++++++++++++++++
| Convergency criteria checked for the last 2 iterations                       +
| Convergence targets achieved. Performing final SCF iteration                 +
++++++++++++++++++++++++++++++++++++++++++++++++++++++++++++++++++++++++++++++++
 Total energy                               :      -578.07369721
 _______________________________________________________________
 Fermi energy                               :         0.20116054
 Kinetic energy                             :       579.07917634
 Coulomb energy                             :     -1117.46150982
 Exchange energy                            :       -37.54563108
 Correlation energy                         :        -2.14573264
 Sum of eigenvalues                         :      -315.75918485
 Effective potential energy                 :      -894.83836119
 Coulomb potential energy                   :      -842.40014147
 xc potential energy                        :       -52.43821971
 Hartree energy                             :       187.31383811
 Electron-nuclear energy                    :     -1217.02781769
 Nuclear-nuclear energy                     :       -87.74753025
 Madelung energy                            :      -696.26143909
 Core-electron kinetic energy               :         0.00000000
 
 DOS at Fermi energy (states/Ha/cell)       :         0.00000000
 
 Electron charges :
     core                                   :        20.00000000
     core leakage                           :         0.00460708
     valence                                :         8.00000000
     interstitial                           :         3.89387006
     charge in muffin-tin spheres :
                  atom     1    Si          :        12.05306497
                  atom     2    Si          :        12.05306497
     total charge in muffin-tins            :        24.10612994
     total charge                           :        28.00000000
 
 Estimated fundamental gap                  :         0.02136071
        valence-band maximum at    1      0.0000  0.0000  0.0000
     conduction-band minimum at    7      0.5000  0.5000  0.0000
 
++++++++++++++++++++++++++++++++++++++++++++++++++++++++++++++++++++++++++++++++
+ Self-consistent loop stopped                                                 +
++++++++++++++++++++++++++++++++++++++++++++++++++++++++++++++++++++++++++++++++
 STATE.OUT is written
 
********************************************************************************
* Groundstate module stopped                                                   *
********************************************************************************
 
--------------------------------------------------------------------------------
- Timings (seconds)                                                            -
--------------------------------------------------------------------------------
 Initialisation                             :         0.22
 Hamiltonian and overlap matrix set up      :         0.28
 First-variational secular equation         :         0.23
 Calculation of charge-density              :         0.33
 Calculation of potential                   :         1.00
 Muffin-tin manipulations                   :         1.63
 APW matching                               :         0.05
 Disk reads/writes                          :         0.32
 Mixing efforts                             :         0.00
 Solver of Dirac eqn.                       :         0.10
 Solver of rel. Schroedinger eqn.           :         0.49
 Total time spent in radial solvers         :         0.59
 
 Total time spent (seconds)                 :         3.39
================================================================================
| EXCITING OXYGEN stopped                                                      =
================================================================================
