================================================================================
| EXCITING OXYGEN started                                                      =
| version hash id: 0d894daf6f57c6c3e407830d9cc13511187898f6                    =
|                                                                              =
|                                                                              =
| Date (DD-MM-YYYY) : 30-04-2021                                               =
| Time (hh:mm:ss)   : 17:24:33                                                 =
|                                                                              =
| All units are atomic (Hartree, Bohr, etc.)                                   =
================================================================================
 
********************************************************************************
* Ground-state run starting from atomic densities                              *
********************************************************************************
 
++++++++++++++++++++++++++++++++++++++++++++++++++++++++++++++++++++++++++++++++
+ Starting initialization                                                      +
++++++++++++++++++++++++++++++++++++++++++++++++++++++++++++++++++++++++++++++++
 
 Lattice vectors (cartesian) :
      8.7635553970      0.0000000000      0.0000000000
      0.0000000000      8.7635553970      0.0000000000
      0.0000000000      0.0000000000      5.6100154650
 
 Reciprocal lattice vectors (cartesian) :
      0.7169676030      0.0000000000      0.0000000000
      0.0000000000      0.7169676030      0.0000000000
      0.0000000000      0.0000000000      1.1199942935
 
 Unit cell volume                           :     430.8486446417
 Brillouin zone volume                      :       0.5757247157
 
 Species :    1 (Ti)
     parameters loaded from                 :    Ti.xml
     name                                   :    titanium
     nuclear charge                         :     -22.00000000
     electronic charge                      :      22.00000000
     atomic mass                            :   87256.20311000
     muffin-tin radius                      :       1.80000000
     # of radial points in muffin-tin       :     350
 
     atomic positions (lattice) :
       1 :   0.00000000  0.00000000  0.00000000
       2 :   0.50000000  0.50000000  0.50000000
 
 Species :    2 (O)
     parameters loaded from                 :    O.xml
     name                                   :    oxygen
     nuclear charge                         :      -8.00000000
     electronic charge                      :       8.00000000
     atomic mass                            :   29165.12203000
     muffin-tin radius                      :       1.80000000
     # of radial points in muffin-tin       :     250
 
     atomic positions (lattice) :
       1 :   0.30508536  0.30508536  0.00000000
       2 :   0.69491464  0.69491464  0.00000000
       3 :   0.19491464  0.80508536  0.50000000
       4 :   0.80508536  0.19491464  0.50000000
 
 Total number of atoms per unit cell        :       6
 
 Spin treatment                             :    spin-unpolarised
 
 Number of Bravais lattice symmetries       :      16
 Number of crystal symmetries               :      16
 
 k-point grid                               :       4    4    6
 Total number of k-points                   :      24
 k-point set is reduced with crystal symmetries
 
 R^MT_min * |G+k|_max (rgkmax)              :       7.00000000
 Species with R^MT_min                      :       1 (Ti)
 Maximum |G+k| for APW functions            :       3.88888889
 Maximum |G| for potential and density      :      12.00000000
 
 G-vector grid sizes                        :      36    36    24
 Total number of G-vectors                  :   12537
 
 Maximum angular momentum used for
     APW functions                          :       8
     computing H and O matrix elements      :       8
     potential and density                  :       8
     inner part of muffin-tin               :       2
 
 Total nuclear charge                       :     -76.00000000
 Total electronic charge                    :      76.00000000
 Total core charge                          :      28.00000000
 Total valence charge                       :      48.00000000
 
 Number of empty states                     :       5
 Total number of valence states             :      30
 
 Maximum Hamiltonian size                   :     485
 Maximum number of plane-waves              :     443
 Total number of local-orbitals             :      42
 
 Exchange-correlation type                  :      22
     PBEsol, Phys. Rev. Lett. 100, 136406 (2008)
     Generalised gradient approximation (GGA)
 
 Smearing scheme                            :    Gaussian
 Smearing width                             :       0.00100000
 
 Using multisecant Broyden potential mixing
 
++++++++++++++++++++++++++++++++++++++++++++++++++++++++++++++++++++++++++++++++
+ Ending initialization                                                        +
++++++++++++++++++++++++++++++++++++++++++++++++++++++++++++++++++++++++++++++++
 
********************************************************************************
* Groundstate module started                                                   *
********************************************************************************
 Output level for this task is set to normal
 
++++++++++++++++++++++++++++++++++++++++++++++++++++++++++++++++++++++++++++++++
+ Self-consistent loop started                                                 +
++++++++++++++++++++++++++++++++++++++++++++++++++++++++++++++++++++++++++++++++
 Density and potential initialised from atomic data
 
 
++++++++++++++++++++++++++++++++++++++++++++++++++++++++++++++++++++++++++++++++
+ SCF iteration number :    1                                                  +
++++++++++++++++++++++++++++++++++++++++++++++++++++++++++++++++++++++++++++++++
 Total energy                               :     -1999.19663856
 _______________________________________________________________
 Fermi energy                               :         0.20472026
 Kinetic energy                             :      2028.56876898
 Coulomb energy                             :     -3911.62865699
 Exchange energy                            :      -112.67450737
 Correlation energy                         :        -3.46224318
 
 DOS at Fermi energy (states/Ha/cell)       :         0.00000000
 
 Electron charges :
     core                                   :        28.00000000
     core leakage                           :         0.00000115
     valence                                :        48.00000000
     interstitial                           :         6.29249499
     charge in muffin-tin spheres :
                  atom     1    Ti          :        18.15285731
                  atom     2    Ti          :        18.15285731
                  atom     3     O          :         8.35044760
                  atom     4     O          :         8.35044760
                  atom     5     O          :         8.35044760
                  atom     6     O          :         8.35044760
     total charge in muffin-tins            :        69.70750501
     total charge                           :        76.00000000
 
 Estimated fundamental gap                  :         0.21216271
        valence-band maximum at    1      0.0000  0.0000  0.0000
     conduction-band minimum at    1      0.0000  0.0000  0.0000
 
 Wall time (seconds)                        :         6.28
 
++++++++++++++++++++++++++++++++++++++++++++++++++++++++++++++++++++++++++++++++
+ SCF iteration number :    2                                                  +
++++++++++++++++++++++++++++++++++++++++++++++++++++++++++++++++++++++++++++++++
 Total energy                               :     -2006.40137267
 _______________________________________________________________
 Fermi energy                               :         0.21355094
 Kinetic energy                             :      2021.44786176
 Coulomb energy                             :     -3912.26523500
 Exchange energy                            :      -112.10031126
 Correlation energy                         :        -3.48368816
 
 DOS at Fermi energy (states/Ha/cell)       :         0.00000000
 
 Electron charges :
     core                                   :        28.00000000
     core leakage                           :         0.00000110
     valence                                :        48.00000000
     interstitial                           :         7.18279471
     charge in muffin-tin spheres :
                  atom     1    Ti          :        18.78985617
                  atom     2    Ti          :        18.78985617
                  atom     3     O          :         7.80937324
                  atom     4     O          :         7.80937324
                  atom     5     O          :         7.80937324
                  atom     6     O          :         7.80937324
     total charge in muffin-tins            :        68.81720529
     total charge                           :        76.00000000
 
 Estimated fundamental gap                  :         0.07175896
        valence-band maximum at    1      0.0000  0.0000  0.0000
     conduction-band minimum at    1      0.0000  0.0000  0.0000
 
 Wall time (seconds)                        :        11.48
 
 RMS change in effective potential (target) :  0.763250      ( 0.100000E-05)
 Absolute change in total energy   (target) :   7.20473      ( 0.100000E-05)
 Charge distance                   (target) :  0.587209E-01  ( 0.100000E-04)
 
++++++++++++++++++++++++++++++++++++++++++++++++++++++++++++++++++++++++++++++++
+ SCF iteration number :    3                                                  +
++++++++++++++++++++++++++++++++++++++++++++++++++++++++++++++++++++++++++++++++
 Total energy                               :     -2007.32799992
 _______________________________________________________________
 Fermi energy                               :         0.21405574
 Kinetic energy                             :      2020.49027016
 Coulomb energy                             :     -3912.27522444
 Exchange energy                            :      -112.05654576
 Correlation energy                         :        -3.48649987
 
 DOS at Fermi energy (states/Ha/cell)       :         0.00000000
 
 Electron charges :
     core                                   :        28.00000000
     core leakage                           :         0.00000110
     valence                                :        48.00000000
     interstitial                           :         7.27150049
     charge in muffin-tin spheres :
                  atom     1    Ti          :        18.88104262
                  atom     2    Ti          :        18.88104262
                  atom     3     O          :         7.74160357
                  atom     4     O          :         7.74160357
                  atom     5     O          :         7.74160357
                  atom     6     O          :         7.74160357
     total charge in muffin-tins            :        68.72849951
     total charge                           :        76.00000000
 
 Estimated fundamental gap                  :         0.05991748
        valence-band maximum at    1      0.0000  0.0000  0.0000
     conduction-band minimum at    1      0.0000  0.0000  0.0000
 
 Wall time (seconds)                        :        16.65
 
 RMS change in effective potential (target) :  0.558545      ( 0.100000E-05)
 Absolute change in total energy   (target) :  0.926627      ( 0.100000E-05)
 Charge distance                   (target) :  0.720146E-02  ( 0.100000E-04)
 
++++++++++++++++++++++++++++++++++++++++++++++++++++++++++++++++++++++++++++++++
+ SCF iteration number :    4                                                  +
++++++++++++++++++++++++++++++++++++++++++++++++++++++++++++++++++++++++++++++++
 Total energy                               :     -2000.72940367
 _______________________________________________________________
 Fermi energy                               :         0.22426911
 Kinetic energy                             :      2025.07518996
 Coulomb energy                             :     -3910.29948569
 Exchange energy                            :      -112.02685460
 Correlation energy                         :        -3.47825334
 
 DOS at Fermi energy (states/Ha/cell)       :         0.00000000
 
 Electron charges :
     core                                   :        28.00000000
     core leakage                           :         0.00000113
     valence                                :        48.00000000
     interstitial                           :         7.17349639
     charge in muffin-tin spheres :
                  atom     1    Ti          :        18.59901903
                  atom     2    Ti          :        18.59901903
                  atom     3     O          :         7.90711639
                  atom     4     O          :         7.90711639
                  atom     5     O          :         7.90711639
                  atom     6     O          :         7.90711639
     total charge in muffin-tins            :        68.82650361
     total charge                           :        76.00000000
 
 Estimated fundamental gap                  :         0.10750340
        valence-band maximum at    1      0.0000  0.0000  0.0000
     conduction-band minimum at    1      0.0000  0.0000  0.0000
 
 Wall time (seconds)                        :        21.84
 
 RMS change in effective potential (target) :  0.709291E-01  ( 0.100000E-05)
 Absolute change in total energy   (target) :   6.59860      ( 0.100000E-05)
 Charge distance                   (target) :  0.192016E-01  ( 0.100000E-04)
 
++++++++++++++++++++++++++++++++++++++++++++++++++++++++++++++++++++++++++++++++
+ SCF iteration number :    5                                                  +
++++++++++++++++++++++++++++++++++++++++++++++++++++++++++++++++++++++++++++++++
 Total energy                               :     -2011.84876834
 _______________________________________________________________
 Fermi energy                               :         0.20218125
 Kinetic energy                             :      2017.49480236
 Coulomb energy                             :     -3913.70590239
 Exchange energy                            :      -112.14777616
 Correlation energy                         :        -3.48989214
 
 DOS at Fermi energy (states/Ha/cell)       :         0.00000000
 
 Electron charges :
     core                                   :        28.00000000
     core leakage                           :         0.00000110
     valence                                :        48.00000000
     interstitial                           :         7.27450976
     charge in muffin-tin spheres :
                  atom     1    Ti          :        19.06531797
                  atom     2    Ti          :        19.06531797
                  atom     3     O          :         7.64871358
                  atom     4     O          :         7.64871358
                  atom     5     O          :         7.64871358
                  atom     6     O          :         7.64871358
     total charge in muffin-tins            :        68.72549024
     total charge                           :        76.00000000
 
 Estimated fundamental gap                  :         0.04214335
        valence-band maximum at    1      0.0000  0.0000  0.0000
     conduction-band minimum at    1      0.0000  0.0000  0.0000
 
 Wall time (seconds)                        :        27.05
 
 RMS change in effective potential (target) :  0.559106E-01  ( 0.100000E-05)
 Absolute change in total energy   (target) :   11.1194      ( 0.100000E-05)
 Charge distance                   (target) :  0.295663E-01  ( 0.100000E-04)
 
++++++++++++++++++++++++++++++++++++++++++++++++++++++++++++++++++++++++++++++++
+ SCF iteration number :    6                                                  +
++++++++++++++++++++++++++++++++++++++++++++++++++++++++++++++++++++++++++++++++
 Total energy                               :     -2006.16420737
 _______________________________________________________________
 Fermi energy                               :         0.21511742
 Kinetic energy                             :      2021.04042394
 Coulomb energy                             :     -3911.69611402
 Exchange energy                            :      -112.02273832
 Correlation energy                         :        -3.48577896
 
 DOS at Fermi energy (states/Ha/cell)       :         0.00000000
 
 Electron charges :
     core                                   :        28.00000000
     core leakage                           :         0.00000112
     valence                                :        48.00000000
     interstitial                           :         7.30402985
     charge in muffin-tin spheres :
                  atom     1    Ti          :        18.86777603
                  atom     2    Ti          :        18.86777603
                  atom     3     O          :         7.74010453
                  atom     4     O          :         7.74010453
                  atom     5     O          :         7.74010453
                  atom     6     O          :         7.74010453
     total charge in muffin-tins            :        68.69597015
     total charge                           :        76.00000000
 
 Estimated fundamental gap                  :         0.06439216
        valence-band maximum at    1      0.0000  0.0000  0.0000
     conduction-band minimum at    1      0.0000  0.0000  0.0000
 
 Wall time (seconds)                        :        32.23
 
 RMS change in effective potential (target) :  0.449775E-02  ( 0.100000E-05)
 Absolute change in total energy   (target) :   5.68456      ( 0.100000E-05)
 Charge distance                   (target) :  0.116275E-01  ( 0.100000E-04)
 
++++++++++++++++++++++++++++++++++++++++++++++++++++++++++++++++++++++++++++++++
+ SCF iteration number :    7                                                  +
++++++++++++++++++++++++++++++++++++++++++++++++++++++++++++++++++++++++++++++++
 Total energy                               :     -2005.97134162
 _______________________________________________________________
 Fermi energy                               :         0.21484957
 Kinetic energy                             :      2021.29865584
 Coulomb energy                             :     -3911.74688330
 Exchange energy                            :      -112.03817486
 Correlation energy                         :        -3.48493929
 
 DOS at Fermi energy (states/Ha/cell)       :         0.00000000
 
 Electron charges :
     core                                   :        28.00000000
     core leakage                           :         0.00000111
     valence                                :        48.00000000
     interstitial                           :         7.27912221
     charge in muffin-tin spheres :
                  atom     1    Ti          :        18.84319239
                  atom     2    Ti          :        18.84319239
                  atom     3     O          :         7.75862325
                  atom     4     O          :         7.75862325
                  atom     5     O          :         7.75862325
                  atom     6     O          :         7.75862325
     total charge in muffin-tins            :        68.72087779
     total charge                           :        76.00000000
 
 Estimated fundamental gap                  :         0.06785857
        valence-band maximum at    1      0.0000  0.0000  0.0000
     conduction-band minimum at    1      0.0000  0.0000  0.0000
 
 Wall time (seconds)                        :        37.41
 
 RMS change in effective potential (target) :  0.281181E-02  ( 0.100000E-05)
 Absolute change in total energy   (target) :  0.192866      ( 0.100000E-05)
 Charge distance                   (target) :  0.198538E-02  ( 0.100000E-04)
 
++++++++++++++++++++++++++++++++++++++++++++++++++++++++++++++++++++++++++++++++
+ SCF iteration number :    8                                                  +
++++++++++++++++++++++++++++++++++++++++++++++++++++++++++++++++++++++++++++++++
 Total energy                               :     -2006.18832786
 _______________________________________________________________
 Fermi energy                               :         0.21448926
 Kinetic energy                             :      2021.13393075
 Coulomb energy                             :     -3911.79858297
 Exchange energy                            :      -112.03842825
 Correlation energy                         :        -3.48524740
 
 DOS at Fermi energy (states/Ha/cell)       :         0.00000000
 
 Electron charges :
     core                                   :        28.00000000
     core leakage                           :         0.00000111
     valence                                :        48.00000000
     interstitial                           :         7.28382656
     charge in muffin-tin spheres :
                  atom     1    Ti          :        18.85448470
                  atom     2    Ti          :        18.85448470
                  atom     3     O          :         7.75180101
                  atom     4     O          :         7.75180101
                  atom     5     O          :         7.75180101
                  atom     6     O          :         7.75180101
     total charge in muffin-tins            :        68.71617344
     total charge                           :        76.00000000
 
 Estimated fundamental gap                  :         0.06632463
        valence-band maximum at    1      0.0000  0.0000  0.0000
     conduction-band minimum at    1      0.0000  0.0000  0.0000
 
 Wall time (seconds)                        :        42.59
 
 RMS change in effective potential (target) :  0.135878E-03  ( 0.100000E-05)
 Absolute change in total energy   (target) :  0.216986      ( 0.100000E-05)
 Charge distance                   (target) :  0.752773E-03  ( 0.100000E-04)
 
++++++++++++++++++++++++++++++++++++++++++++++++++++++++++++++++++++++++++++++++
+ SCF iteration number :    9                                                  +
++++++++++++++++++++++++++++++++++++++++++++++++++++++++++++++++++++++++++++++++
 Total energy                               :     -2006.16730357
 _______________________________________________________________
 Fermi energy                               :         0.21454535
 Kinetic energy                             :      2021.14628460
 Coulomb energy                             :     -3911.79050004
 Exchange energy                            :      -112.03785134
 Correlation energy                         :        -3.48523678
 
 DOS at Fermi energy (states/Ha/cell)       :         0.00000000
 
 Electron charges :
     core                                   :        28.00000000
     core leakage                           :         0.00000111
     valence                                :        48.00000000
     interstitial                           :         7.28409821
     charge in muffin-tin spheres :
                  atom     1    Ti          :        18.85387224
                  atom     2    Ti          :        18.85387224
                  atom     3     O          :         7.75203933
                  atom     4     O          :         7.75203933
                  atom     5     O          :         7.75203933
                  atom     6     O          :         7.75203933
     total charge in muffin-tins            :        68.71590179
     total charge                           :        76.00000000
 
 Estimated fundamental gap                  :         0.06640170
        valence-band maximum at    1      0.0000  0.0000  0.0000
     conduction-band minimum at    1      0.0000  0.0000  0.0000
 
 Wall time (seconds)                        :        47.78
 
 RMS change in effective potential (target) :  0.373490E-04  ( 0.100000E-05)
 Absolute change in total energy   (target) :  0.210243E-01  ( 0.100000E-05)
 Charge distance                   (target) :  0.345957E-04  ( 0.100000E-04)
 
++++++++++++++++++++++++++++++++++++++++++++++++++++++++++++++++++++++++++++++++
+ SCF iteration number :   10                                                  +
++++++++++++++++++++++++++++++++++++++++++++++++++++++++++++++++++++++++++++++++
 Total energy                               :     -2006.17117422
 _______________________________________________________________
 Fermi energy                               :         0.21453529
 Kinetic energy                             :      2021.14380415
 Coulomb energy                             :     -3911.79180266
 Exchange energy                            :      -112.03793619
 Correlation energy                         :        -3.48523952
 
 DOS at Fermi energy (states/Ha/cell)       :         0.00000000
 
 Electron charges :
     core                                   :        28.00000000
     core leakage                           :         0.00000111
     valence                                :        48.00000000
     interstitial                           :         7.28407482
     charge in muffin-tin spheres :
                  atom     1    Ti          :        18.85401163
                  atom     2    Ti          :        18.85401163
                  atom     3     O          :         7.75197548
                  atom     4     O          :         7.75197548
                  atom     5     O          :         7.75197548
                  atom     6     O          :         7.75197548
     total charge in muffin-tins            :        68.71592518
     total charge                           :        76.00000000
 
 Estimated fundamental gap                  :         0.06638298
        valence-band maximum at    1      0.0000  0.0000  0.0000
     conduction-band minimum at    1      0.0000  0.0000  0.0000
 
 Wall time (seconds)                        :        52.97
 
 RMS change in effective potential (target) :  0.107063E-05  ( 0.100000E-05)
 Absolute change in total energy   (target) :  0.387065E-02  ( 0.100000E-05)
 Charge distance                   (target) :  0.824841E-05  ( 0.100000E-04)
 
++++++++++++++++++++++++++++++++++++++++++++++++++++++++++++++++++++++++++++++++
+ SCF iteration number :   11                                                  +
++++++++++++++++++++++++++++++++++++++++++++++++++++++++++++++++++++++++++++++++
 Total energy                               :     -2006.17129751
 _______________________________________________________________
 Fermi energy                               :         0.21453498
 Kinetic energy                             :      2021.14371449
 Coulomb energy                             :     -3911.79183547
 Exchange energy                            :      -112.03793685
 Correlation energy                         :        -3.48523969
 
 DOS at Fermi energy (states/Ha/cell)       :         0.00000000
 
 Electron charges :
     core                                   :        28.00000000
     core leakage                           :         0.00000111
     valence                                :        48.00000000
     interstitial                           :         7.28407596
     charge in muffin-tin spheres :
                  atom     1    Ti          :        18.85401608
                  atom     2    Ti          :        18.85401608
                  atom     3     O          :         7.75197297
                  atom     4     O          :         7.75197297
                  atom     5     O          :         7.75197297
                  atom     6     O          :         7.75197297
     total charge in muffin-tins            :        68.71592404
     total charge                           :        76.00000000
 
 Estimated fundamental gap                  :         0.06638236
        valence-band maximum at    1      0.0000  0.0000  0.0000
     conduction-band minimum at    1      0.0000  0.0000  0.0000
 
 Wall time (seconds)                        :        58.16
 
 RMS change in effective potential (target) :  0.809493E-06  ( 0.100000E-05)
 Absolute change in total energy   (target) :  0.123297E-03  ( 0.100000E-05)
 Charge distance                   (target) :  0.533046E-06  ( 0.100000E-04)
 
++++++++++++++++++++++++++++++++++++++++++++++++++++++++++++++++++++++++++++++++
+ SCF iteration number :   12                                                  +
++++++++++++++++++++++++++++++++++++++++++++++++++++++++++++++++++++++++++++++++
 Total energy                               :     -2006.17124981
 _______________________________________________________________
 Fermi energy                               :         0.21453507
 Kinetic energy                             :      2021.14376495
 Coulomb energy                             :     -3911.79183736
 Exchange energy                            :      -112.03793783
 Correlation energy                         :        -3.48523957
 
 DOS at Fermi energy (states/Ha/cell)       :         0.00000000
 
 Electron charges :
     core                                   :        28.00000000
     core leakage                           :         0.00000111
     valence                                :        48.00000000
     interstitial                           :         7.28407419
     charge in muffin-tin spheres :
                  atom     1    Ti          :        18.85401275
                  atom     2    Ti          :        18.85401275
                  atom     3     O          :         7.75197508
                  atom     4     O          :         7.75197508
                  atom     5     O          :         7.75197508
                  atom     6     O          :         7.75197508
     total charge in muffin-tins            :        68.71592581
     total charge                           :        76.00000000
 
 Estimated fundamental gap                  :         0.06638282
        valence-band maximum at    1      0.0000  0.0000  0.0000
     conduction-band minimum at    1      0.0000  0.0000  0.0000
 
 Wall time (seconds)                        :        63.35
 
 RMS change in effective potential (target) :  0.441056E-07  ( 0.100000E-05)
 Absolute change in total energy   (target) :  0.477063E-04  ( 0.100000E-05)
 Charge distance                   (target) :  0.284558E-06  ( 0.100000E-04)
 
++++++++++++++++++++++++++++++++++++++++++++++++++++++++++++++++++++++++++++++++
+ SCF iteration number :   13                                                  +
++++++++++++++++++++++++++++++++++++++++++++++++++++++++++++++++++++++++++++++++
 Total energy                               :     -2006.17125124
 _______________________________________________________________
 Fermi energy                               :         0.21453506
 Kinetic energy                             :      2021.14376338
 Coulomb energy                             :     -3911.79183717
 Exchange energy                            :      -112.03793788
 Correlation energy                         :        -3.48523957
 
 DOS at Fermi energy (states/Ha/cell)       :         0.00000000
 
 Electron charges :
     core                                   :        28.00000000
     core leakage                           :         0.00000111
     valence                                :        48.00000000
     interstitial                           :         7.28407408
     charge in muffin-tin spheres :
                  atom     1    Ti          :        18.85401277
                  atom     2    Ti          :        18.85401277
                  atom     3     O          :         7.75197509
                  atom     4     O          :         7.75197509
                  atom     5     O          :         7.75197509
                  atom     6     O          :         7.75197509
     total charge in muffin-tins            :        68.71592592
     total charge                           :        76.00000000
 
 Estimated fundamental gap                  :         0.06638282
        valence-band maximum at    1      0.0000  0.0000  0.0000
     conduction-band minimum at    1      0.0000  0.0000  0.0000
 
 Wall time (seconds)                        :        68.54
 
 RMS change in effective potential (target) :  0.301799E-07  ( 0.100000E-05)
 Absolute change in total energy   (target) :  0.143315E-05  ( 0.100000E-05)
 Charge distance                   (target) :  0.907261E-08  ( 0.100000E-04)
 
++++++++++++++++++++++++++++++++++++++++++++++++++++++++++++++++++++++++++++++++
+ SCF iteration number :   14                                                  +
++++++++++++++++++++++++++++++++++++++++++++++++++++++++++++++++++++++++++++++++
 Total energy                               :     -2006.17125338
 _______________________________________________________________
 Fermi energy                               :         0.21453506
 Kinetic energy                             :      2021.14376198
 Coulomb energy                             :     -3911.79183789
 Exchange energy                            :      -112.03793788
 Correlation energy                         :        -3.48523958
 
 DOS at Fermi energy (states/Ha/cell)       :         0.00000000
 
 Electron charges :
     core                                   :        28.00000000
     core leakage                           :         0.00000111
     valence                                :        48.00000000
     interstitial                           :         7.28407415
     charge in muffin-tin spheres :
                  atom     1    Ti          :        18.85401289
                  atom     2    Ti          :        18.85401289
                  atom     3     O          :         7.75197502
                  atom     4     O          :         7.75197502
                  atom     5     O          :         7.75197502
                  atom     6     O          :         7.75197502
     total charge in muffin-tins            :        68.71592585
     total charge                           :        76.00000000
 
 Estimated fundamental gap                  :         0.06638281
        valence-band maximum at    1      0.0000  0.0000  0.0000
     conduction-band minimum at    1      0.0000  0.0000  0.0000
 
 Wall time (seconds)                        :        73.73
 
 RMS change in effective potential (target) :  0.249221E-08  ( 0.100000E-05)
 Absolute change in total energy   (target) :  0.213798E-05  ( 0.100000E-05)
 Charge distance                   (target) :  0.806804E-08  ( 0.100000E-04)
 
++++++++++++++++++++++++++++++++++++++++++++++++++++++++++++++++++++++++++++++++
+ SCF iteration number :   15                                                  +
++++++++++++++++++++++++++++++++++++++++++++++++++++++++++++++++++++++++++++++++
 Total energy                               :     -2006.17125439
 _______________________________________________________________
 Fermi energy                               :         0.21453506
 Kinetic energy                             :      2021.14376248
 Coulomb energy                             :     -3911.79183932
 Exchange energy                            :      -112.03793796
 Correlation energy                         :        -3.48523958
 
 DOS at Fermi energy (states/Ha/cell)       :         0.00000000
 
 Electron charges :
     core                                   :        28.00000000
     core leakage                           :         0.00000111
     valence                                :        48.00000000
     interstitial                           :         7.28407416
     charge in muffin-tin spheres :
                  atom     1    Ti          :        18.85401288
                  atom     2    Ti          :        18.85401288
                  atom     3     O          :         7.75197502
                  atom     4     O          :         7.75197502
                  atom     5     O          :         7.75197502
                  atom     6     O          :         7.75197502
     total charge in muffin-tins            :        68.71592584
     total charge                           :        76.00000000
 
 Estimated fundamental gap                  :         0.06638281
        valence-band maximum at    1      0.0000  0.0000  0.0000
     conduction-band minimum at    1      0.0000  0.0000  0.0000
 
 Wall time (seconds)                        :        78.92
 
 RMS change in effective potential (target) :  0.112625E-07  ( 0.100000E-05)
 Absolute change in total energy   (target) :  0.100781E-05  ( 0.100000E-05)
 Charge distance                   (target) :  0.239741E-08  ( 0.100000E-04)
 
++++++++++++++++++++++++++++++++++++++++++++++++++++++++++++++++++++++++++++++++
+ SCF iteration number :   16                                                  +
++++++++++++++++++++++++++++++++++++++++++++++++++++++++++++++++++++++++++++++++
 Total energy                               :     -2006.17125340
 _______________________________________________________________
 Fermi energy                               :         0.21453506
 Kinetic energy                             :      2021.14376196
 Coulomb energy                             :     -3911.79183790
 Exchange energy                            :      -112.03793788
 Correlation energy                         :        -3.48523958
 
 DOS at Fermi energy (states/Ha/cell)       :         0.00000000
 
 Electron charges :
     core                                   :        28.00000000
     core leakage                           :         0.00000111
     valence                                :        48.00000000
     interstitial                           :         7.28407415
     charge in muffin-tin spheres :
                  atom     1    Ti          :        18.85401289
                  atom     2    Ti          :        18.85401289
                  atom     3     O          :         7.75197502
                  atom     4     O          :         7.75197502
                  atom     5     O          :         7.75197502
                  atom     6     O          :         7.75197502
     total charge in muffin-tins            :        68.71592585
     total charge                           :        76.00000000
 
 Estimated fundamental gap                  :         0.06638281
        valence-band maximum at    1      0.0000  0.0000  0.0000
     conduction-band minimum at    1      0.0000  0.0000  0.0000
 
 Wall time (seconds)                        :        84.11
 
 RMS change in effective potential (target) :  0.260468E-08  ( 0.100000E-05)
 Absolute change in total energy   (target) :  0.991481E-06  ( 0.100000E-05)
 Charge distance                   (target) :  0.236342E-08  ( 0.100000E-04)
 
++++++++++++++++++++++++++++++++++++++++++++++++++++++++++++++++++++++++++++++++
+ SCF iteration number :   17                                                  +
++++++++++++++++++++++++++++++++++++++++++++++++++++++++++++++++++++++++++++++++
 Total energy                               :     -2006.17125290
 _______________________________________________________________
 Fermi energy                               :         0.21453506
 Kinetic energy                             :      2021.14376180
 Coulomb energy                             :     -3911.79183728
 Exchange energy                            :      -112.03793785
 Correlation energy                         :        -3.48523958
 
 DOS at Fermi energy (states/Ha/cell)       :         0.00000000
 
 Electron charges :
     core                                   :        28.00000000
     core leakage                           :         0.00000111
     valence                                :        48.00000000
     interstitial                           :         7.28407415
     charge in muffin-tin spheres :
                  atom     1    Ti          :        18.85401288
                  atom     2    Ti          :        18.85401288
                  atom     3     O          :         7.75197502
                  atom     4     O          :         7.75197502
                  atom     5     O          :         7.75197502
                  atom     6     O          :         7.75197502
     total charge in muffin-tins            :        68.71592585
     total charge                           :        76.00000000
 
 Estimated fundamental gap                  :         0.06638281
        valence-band maximum at    1      0.0000  0.0000  0.0000
     conduction-band minimum at    1      0.0000  0.0000  0.0000
 
 Wall time (seconds)                        :        89.31
 
 RMS change in effective potential (target) :  0.197205E-08  ( 0.100000E-05)
 Absolute change in total energy   (target) :  0.492076E-06  ( 0.100000E-05)
 Charge distance                   (target) :  0.112424E-08  ( 0.100000E-04)
                                                                                
++++++++++++++++++++++++++++++++++++++++++++++++++++++++++++++++++++++++++++++++
| Convergency criteria checked for the last 2 iterations                       +
| Convergence targets achieved. Performing final SCF iteration                 +
++++++++++++++++++++++++++++++++++++++++++++++++++++++++++++++++++++++++++++++++
 Total energy                               :     -2006.17125360
 _______________________________________________________________
 Fermi energy                               :         0.21453506
 Kinetic energy                             :      2021.14376199
 Coulomb energy                             :     -3911.79183812
 Exchange energy                            :      -112.03793790
 Correlation energy                         :        -3.48523958
 
 DOS at Fermi energy (states/Ha/cell)       :         0.00000000
 
 Electron charges :
     core                                   :        28.00000000
     core leakage                           :         0.00000111
     valence                                :        48.00000000
     interstitial                           :         7.28407415
     charge in muffin-tin spheres :
                  atom     1    Ti          :        18.85401289
                  atom     2    Ti          :        18.85401289
                  atom     3     O          :         7.75197502
                  atom     4     O          :         7.75197502
                  atom     5     O          :         7.75197502
                  atom     6     O          :         7.75197502
     total charge in muffin-tins            :        68.71592585
     total charge                           :        76.00000000
 
 Estimated fundamental gap                  :         0.06638281
        valence-band maximum at    1      0.0000  0.0000  0.0000
     conduction-band minimum at    1      0.0000  0.0000  0.0000
 
++++++++++++++++++++++++++++++++++++++++++++++++++++++++++++++++++++++++++++++++
+ Self-consistent loop stopped                                                 +
++++++++++++++++++++++++++++++++++++++++++++++++++++++++++++++++++++++++++++++++
 STATE.OUT is written
 
********************************************************************************
* Groundstate module stopped                                                   *
********************************************************************************
 
 Total time spent (seconds)                 :        93.24
================================================================================
| EXCITING OXYGEN stopped                                                      =
================================================================================
