================================================================================
| EXCITING OXYGEN started for task xsgeneigvec (301)                           =
| version hash id: c4f3d46131d2c0b171143ca8613922ad73ab0f75                    =
|                                                                              =
| Date (DD-MM-YYYY) : 29-05-2021                                               =
================================================================================
================================================================================
One-shot GS runs for BSE calculations
================================================================================
++++++++++++++++++++++++++++++++++++++++++++++++++++++++++++++++++++++++++++++++
One-shot GS runs for k+qmt/2 grids
++++++++++++++++++++++++++++++++++++++++++++++++++++++++++++++++++++++++++++++++
Info(xsgeneigvec): Generating eigenvectors for Q-point      1
--------------------------------------------------------------------------------
Info(xsgeneigvec): Generation of eigenvectors finished
 
Info(xsfinit): task Nr.     301 stopped gracefully
 
 Timings: 
     Date (DD-MM-YYYY)      : 29-05-2021
     Time (hh:mm:ss)        : 19:51:36
     CPU time               : 5.55 sec; 0.00 hrs; ( 0 d, 00 h, 00 m, 06 s )
     wall time              : 3.07 sec; 0.00 hrs; ( 0 d, 00 h, 00 m, 03 s )
     CPU load               : 180.66 %
     CPU time  (cumulative) : 87.20 sec; 0.02 hrs; ( 0 d, 00 h, 01 m, 27 s )
     wall time (cumulative) : 3.07 sec; 0.00 hrs; ( 0 d, 00 h, 00 m, 03 s )
     CPU load  (cumulative) : 180.66 %
 
================================================================================
= EXCITING OXYGEN stopped for task    301                                      =
================================================================================
 
 
================================================================================
| EXCITING OXYGEN started for task writepmatxs (320)                           =
| Date (DD-MM-YYYY) : 29-05-2021                                               =
================================================================================
Info(writepmatxs): Momentum matrix elements finished
Info(xsfinit): task Nr.     320 stopped gracefully
 
 Timings: 
     Date (DD-MM-YYYY)      : 29-05-2021
     Time (hh:mm:ss)        : 19:51:42
     CPU time               : 8.37 sec; 0.00 hrs; ( 0 d, 00 h, 00 m, 08 s )
     wall time              : 5.44 sec; 0.00 hrs; ( 0 d, 00 h, 00 m, 05 s )
     CPU load               : 153.95 %
     CPU time  (cumulative) : 95.57 sec; 0.03 hrs; ( 0 d, 00 h, 01 m, 36 s )
     wall time (cumulative) : 8.51 sec; 0.00 hrs; ( 0 d, 00 h, 00 m, 09 s )
     CPU load  (cumulative) : 153.95 %
 
================================================================================
= EXCITING OXYGEN stopped for task    320                                      =
================================================================================
 
 
================================================================================
| EXCITING OXYGEN started for task scrgeneigvec (401)                          =
| Date (DD-MM-YYYY) : 29-05-2021                                               =
================================================================================
 
Info(xsinit): mapping screening-specific parameters
 
================================================================================
One-shot GS runs for BSE calculations
================================================================================
++++++++++++++++++++++++++++++++++++++++++++++++++++++++++++++++++++++++++++++++
One-shot GS runs for k+qmt/2 grids
++++++++++++++++++++++++++++++++++++++++++++++++++++++++++++++++++++++++++++++++
Info(xsgeneigvec): Generating eigenvectors for Q-point      1
Using screening GS parameters.
--------------------------------------------------------------------------------
Info(xsgeneigvec): Generation of eigenvectors finished
 
Info(xsfinit): task Nr.     401 stopped gracefully
 
 Timings: 
     Date (DD-MM-YYYY)      : 29-05-2021
     Time (hh:mm:ss)        : 19:51:45
     CPU time               : 5.32 sec; 0.00 hrs; ( 0 d, 00 h, 00 m, 05 s )
     wall time              : 2.90 sec; 0.00 hrs; ( 0 d, 00 h, 00 m, 03 s )
     CPU load               : 183.58 %
     CPU time  (cumulative) : 100.89 sec; 0.03 hrs; ( 0 d, 00 h, 01 m, 41 s )
     wall time (cumulative) : 11.41 sec; 0.00 hrs; ( 0 d, 00 h, 00 m, 11 s )
     CPU load  (cumulative) : 183.58 %
 
================================================================================
= EXCITING OXYGEN stopped for task    401                                      =
================================================================================
 
 
================================================================================
| EXCITING OXYGEN started for task scrwritepmat (420)                          =
| Date (DD-MM-YYYY) : 29-05-2021                                               =
================================================================================
 
Info(xsinit): mapping screening-specific parameters
 
Info(writepmatxs): Momentum matrix elements finished
Info(scrwritepmat): Momentum matrix elements for screening finished
Info(xsfinit): task Nr.     420 stopped gracefully
 
 Timings: 
     Date (DD-MM-YYYY)      : 29-05-2021
     Time (hh:mm:ss)        : 19:51:48
     CPU time               : 4.61 sec; 0.00 hrs; ( 0 d, 00 h, 00 m, 05 s )
     wall time              : 3.51 sec; 0.00 hrs; ( 0 d, 00 h, 00 m, 04 s )
     CPU load               : 131.16 %
     CPU time  (cumulative) : 105.50 sec; 0.03 hrs; ( 0 d, 00 h, 01 m, 46 s )
     wall time (cumulative) : 14.92 sec; 0.00 hrs; ( 0 d, 00 h, 00 m, 15 s )
     CPU load  (cumulative) : 131.16 %
 
================================================================================
= EXCITING OXYGEN stopped for task    420                                      =
================================================================================
 
 
================================================================================
| EXCITING OXYGEN started for task screen (430)                                =
| Date (DD-MM-YYYY) : 29-05-2021                                               =
================================================================================
 
Info(xsinit): mapping screening-specific parameters
 
++++++++++++++++++++++++++++++++++++++++++++++++++++++++++++++++++++++++++++++++
Info(screenlauncher): Calculating screening for unshifted q-grid.
Info(screenlauncher): Number of q points:      12
++++++++++++++++++++++++++++++++++++++++++++++++++++++++++++++++++++++++++++++++
 
Info(screenlauncher): lowest (partially)  unoccupied state:     25
Info(screenlauncher): highest (partially) occupied state  :     24
Info(screenlauncher): number of occupied states considered:   24
Info(screenlauncher): number of unoccupied states considered:   76
--------------------------------------------------------------------------------
 
Info(screenlauncher): Starting loop over q-points
 
++++++++++++++++++++++++++++++++++++++++++++++++++++++++++++++++++++++++++++++++
Info(screenlauncher): Screening for unshifted q-grid finished
++++++++++++++++++++++++++++++++++++++++++++++++++++++++++++++++++++++++++++++++
 
Info(screenlauncher): Screening finished
Info(xsfinit): task Nr.     430 stopped gracefully
 
 Timings: 
     Date (DD-MM-YYYY)      : 29-05-2021
     Time (hh:mm:ss)        : 19:52:02
     CPU time               : 26.33 sec; 0.01 hrs; ( 0 d, 00 h, 00 m, 26 s )
     wall time              : 13.39 sec; 0.00 hrs; ( 0 d, 00 h, 00 m, 13 s )
     CPU load               : 196.66 %
     CPU time  (cumulative) : 131.84 sec; 0.04 hrs; ( 0 d, 00 h, 02 m, 12 s )
     wall time (cumulative) : 28.31 sec; 0.01 hrs; ( 0 d, 00 h, 00 m, 28 s )
     CPU load  (cumulative) : 196.66 %
 
================================================================================
= EXCITING OXYGEN stopped for task    430                                      =
================================================================================
 
 
================================================================================
| EXCITING OXYGEN started for task scrcoulint (440)                            =
| Date (DD-MM-YYYY) : 29-05-2021                                               =
================================================================================
 
Info(xsinit): mapping BSE-specific parameters
 
++++++++++++++++++++++++++++++++++++++++++++++++++++++++++++++++++++++++++++++++
Info(scrcoulintlauncher): Setting up screened Coulomb interaction matrix W.
Info(scrcoulintlauncher): Using momentum transfer vectors from list :   1 to  1
++++++++++++++++++++++++++++++++++++++++++++++++++++++++++++++++++++++++++++++++
 
++++++++++++++++++++++++++++++++++++++++++++++++++++++++++++++++++++++++++++++++
Info(scrcoulintlauncher): Calculating screened Coulomb interaction matrix W
Info(scrcoulintlauncher): Momentum transfer list index: iqmt=  1
Info(scrcoulintlauncher): Momentum transfer: vqmtl=   0.000   0.000   0.000
++++++++++++++++++++++++++++++++++++++++++++++++++++++++++++++++++++++++++++++++
 
Info(scrcoulintlauncher): Calculating RR block of W
 
--------------------------------------------------------------------------------
Info(scrcoulint): Inspecting occupations...
Info(setranges_modxs): Determining k+qmt/2 grid
Info(setranges_modxs): Determining k-qmt/2 grid
Info(setranges_modxs): Number of non-reduced k-points:       12
Info(setranges_modxs): Number of states considered:       55
Info(setranges_modxs): Number of (partially) occupied states:       10
Info(setranges_modxs): Highest (partially) occupied states:       24
Info(setranges_modxs): Number of (partially) unoccupied states:       31
Info(setranges_modxs): Lowest (partially) unoccupied states:       25
--------------------------------------------------------------------------------
Info(scrcoulint): Selecting transitions...
Info(select_transitions): Inspecting transitions in the  band interval:
  lowest occupied state:   5
  highest occupied state:  10
  lowest unoccupied state:  25
  highest unoccupied state:  44
  Opening gap with a scissor of:      0.000/H      0.000/eV
Info(select_transitions): Number of participating transitions:    1440
--------------------------------------------------------------------------------
Info(scrcoulint): Size of file SCCLI will be about     0.016737 GB
Info(scrcoulint): Using q-grid
Info(scrcoulint): Number of reduced q-points:     12
Info(scrcoulint): Number of non-reduced q-points:     12
 
Info(scrcoulint): Calculating W(G1,G2,qr) fourier coefficients
Info(scrcoulint): Calculating W matrix elements
++++++++++++++++++++++++++++++++++++++++++++++++++++++++++++++++++++++++++++++++
Info(scrcoulintlauncher): Screened coulomb interaction finished for iqmt=   1
++++++++++++++++++++++++++++++++++++++++++++++++++++++++++++++++++++++++++++++++
Info(xsfinit): task Nr.     440 stopped gracefully
 
 Timings: 
     Date (DD-MM-YYYY)      : 29-05-2021
     Time (hh:mm:ss)        : 19:52:06
     CPU time               : 8.71 sec; 0.00 hrs; ( 0 d, 00 h, 00 m, 09 s )
     wall time              : 4.42 sec; 0.00 hrs; ( 0 d, 00 h, 00 m, 04 s )
     CPU load               : 196.95 %
     CPU time  (cumulative) : 140.55 sec; 0.04 hrs; ( 0 d, 00 h, 02 m, 21 s )
     wall time (cumulative) : 32.74 sec; 0.01 hrs; ( 0 d, 00 h, 00 m, 33 s )
     CPU load  (cumulative) : 196.95 %
 
================================================================================
= EXCITING OXYGEN stopped for task    440                                      =
================================================================================
 
 
================================================================================
| EXCITING OXYGEN started for task exccoulint (441)                            =
| Date (DD-MM-YYYY) : 29-05-2021                                               =
================================================================================
 
Info(xsinit): mapping BSE-specific parameters
 
++++++++++++++++++++++++++++++++++++++++++++++++++++++++++++++++++++++++++++++++
Info(exccoulintlauncher): Setting up exchange interaction matrix V.
Info(exccoulintlauncher): Using momentum transfer vectors from list :   1 to  1
++++++++++++++++++++++++++++++++++++++++++++++++++++++++++++++++++++++++++++++++
 
++++++++++++++++++++++++++++++++++++++++++++++++++++++++++++++++++++++++++++++++
Info(exccoulintlauncher):Calculating exchange interaction matrix V
Info(exccoulintlauncher): Momentum transfer list index: iqmt=  1
Info(exccoulintlauncher): Momentum transfer: vqmtl=   0.000   0.000   0.000
++++++++++++++++++++++++++++++++++++++++++++++++++++++++++++++++++++++++++++++++
 
Info(exccoulintlauncher): Calculating RR block of V
 
--------------------------------------------------------------------------------
Info(exccoulint): Inspecting occupations...
Info(setranges_modxs): Determining k+qmt/2 grid
Info(setranges_modxs): Determining k-qmt/2 grid
Info(setranges_modxs): Number of non-reduced k-points:       12
Info(setranges_modxs): Number of states considered:       55
Info(setranges_modxs): Number of (partially) occupied states:       10
Info(setranges_modxs): Highest (partially) occupied states:       24
Info(setranges_modxs): Number of (partially) unoccupied states:       31
Info(setranges_modxs): Lowest (partially) unoccupied states:       25
--------------------------------------------------------------------------------
Info(exccoulint): Selecting transitions...
Info(select_transitions): Inspecting transitions in the  band interval:
  lowest occupied state:   5
  highest occupied state:  10
  lowest unoccupied state:  25
  highest unoccupied state:  44
  Opening gap with a scissor of:      0.000/H      0.000/eV
Info(select_transitions): Number of participating transitions:    1440
--------------------------------------------------------------------------------
Info(exccoulint): Size of file EXCLI will be about     0.016737 GB
 
Info(exccoulint): Generating plane wave matrix elements for momentum transfer iqmt=   1
  Timing (in seconds)	   :      12.470
 
Info(exccoulint): Generating V matrix elements
Info(exccoulint): Zeroing Coulomb potential at G+qmt index:  1
++++++++++++++++++++++++++++++++++++++++++++++++++++++++++++++++++++++++++++++++
Info(exccoulintlauncher): Exchange interaction finished for iqmt=   1
++++++++++++++++++++++++++++++++++++++++++++++++++++++++++++++++++++++++++++++++
Info(xsfinit): task Nr.     441 stopped gracefully
 
 Timings: 
     Date (DD-MM-YYYY)      : 29-05-2021
     Time (hh:mm:ss)        : 19:52:19
     CPU time               : 24.18 sec; 0.01 hrs; ( 0 d, 00 h, 00 m, 24 s )
     wall time              : 13.00 sec; 0.00 hrs; ( 0 d, 00 h, 00 m, 13 s )
     CPU load               : 186.04 %
     CPU time  (cumulative) : 164.73 sec; 0.05 hrs; ( 0 d, 00 h, 02 m, 45 s )
     wall time (cumulative) : 45.74 sec; 0.01 hrs; ( 0 d, 00 h, 00 m, 46 s )
     CPU load  (cumulative) : 186.04 %
 
================================================================================
= EXCITING OXYGEN stopped for task    441                                      =
================================================================================
 
 
================================================================================
| EXCITING OXYGEN started for task bse (445)                                   =
| Date (DD-MM-YYYY) : 29-05-2021                                               =
================================================================================
 
Info(xsinit): mapping BSE-specific parameters
 
Info(bselauncher): Init time:    0.398450
++++++++++++++++++++++++++++++++++++++++++++++++++++++++++++++++++++++++++++++++
Info(bselauncher): Setting up and diagonalizing BSE Hamiltonian.
Info(bselauncher): Using momentum transfer vectors from list :   1 to  1
++++++++++++++++++++++++++++++++++++++++++++++++++++++++++++++++++++++++++++++++
Info(bselauncher): Serial execution
++++++++++++++++++++++++++++++++++++++++++++++++++++++++++++++++++++++++++++++++
--------------------------------------------------------------------------------
Info(bselauncher): Momentum transfer list index: iqmt=  1
Info(bselauncher): Momentum transfer: vqmtl=   0.000   0.000   0.000
--------------------------------------------------------------------------------
--------------------------------------------------------------------------------
Info(bse): Inspecting occupations...
Info(setranges_modxs): Determining k+qmt/2 grid
Info(setranges_modxs): Determining k-qmt/2 grid
Info(setranges_modxs): Number of non-reduced k-points:       12
Info(setranges_modxs): Number of states considered:       55
Info(setranges_modxs): Number of (partially) occupied states:       10
Info(setranges_modxs): Highest (partially) occupied states:       24
Info(setranges_modxs): Number of (partially) unoccupied states:       31
Info(setranges_modxs): Lowest (partially) unoccupied states:       25
Info(select_transitions): Inspecting transitions in the  band interval:
  lowest occupied state:   5
  highest occupied state:  10
  lowest unoccupied state:  25
  highest unoccupied state:  44
  Opening gap with a scissor of:      0.000/H      0.000/eV
Info(select_transitions): Number of participating transitions:    1440
--------------------------------------------------------------------------------
Info(bse): Selecting transitions...
--------------------------------------------------------------------------------
 
Info(bse):bsegap (eV):   438.7011115724932324
Info(bse): Assembling BSE matrix
  RR/RA blocks of global BSE-Hamiltonian:
  Size of the Hamiltonian:    1440
  Number of k-points:      12
  Distributing matrix to   1 processes
  Local matrix shape   1440 x  1440
Info(bse): max local RAM needed for BSE matrices ~     0.030899 GB
 
--------------------------------------------------------------------------------
Info(setup_bse_block): Setting up RR part of hamiltonian
Info(setup_bse_block): Singlet spin state
 Hamiltonian constructed.
All processes build their local matrix
Info(bse): Diagonalizing RR Hamiltonian (TDA)
Info(bse): Invoking Lapack routine ZHEEVR
      1440 eigen solutions found in the interval:
         i1=       1 i2=    1440
 
--------------------------------------------------------------------------------
Info(makeoscistr_dist): Making oscillator strengths (distributed).
Info(makeoscistr_dist): iqmt=   1
Info(makeoscistr_dist): Qmt=       0.000000       0.000000       0.000000
Info(makeoscistr_dist): Using zero momentum transfer formalismus.
Info(makeoscistr_dist): Making oscillator strengths using dipole operator matrix elements.
  Building Dipole matrix.
  Building distributed resonant oscillator strengths.
 
--------------------------------------------------------------------------------
Info(bse): Writing excition energies and oscillator strengths to text file.
Info(makespectrum_dist): Making spectrum using formula for coupling with time reversed AR basis.
Info(makespectrum_dist): Using formalism for vanishing momentum transfer.
Info(finalizespectrum): Finalizing spectrum.
Info(finalizespectrum): Using modified density-response function to build spectrum.
Info(writederived): Writing quantities derived from the macroscopic dielectric function.
  Derived quantities written.
--------------------------------------------------------------------------------
Info(bselauncher): Spectrum finished for iqmt=  1
--------------------------------------------------------------------------------
Info(xsfinit): task Nr.     445 stopped gracefully
 
 Timings: 
     Date (DD-MM-YYYY)      : 29-05-2021
     Time (hh:mm:ss)        : 19:52:20
     CPU time               : 2.13 sec; 0.00 hrs; ( 0 d, 00 h, 00 m, 02 s )
     wall time              : 1.14 sec; 0.00 hrs; ( 0 d, 00 h, 00 m, 01 s )
     CPU load               : 186.83 %
     CPU time  (cumulative) : 166.86 sec; 0.05 hrs; ( 0 d, 00 h, 02 m, 47 s )
     wall time (cumulative) : 46.88 sec; 0.01 hrs; ( 0 d, 00 h, 00 m, 47 s )
     CPU load  (cumulative) : 186.83 %
 
================================================================================
= EXCITING OXYGEN stopped for task    445                                      =
================================================================================
 
 
