================================================================================
| EXCITING OXYGEN started                                                      =
| version hash id: c4f3d46131d2c0b171143ca8613922ad73ab0f75                    =
|                                                                              =
| compiler: ifort (IFORT) 19.0.0.117 20180804                                  =
|                                                                              =
|                                                                              =
| Date (DD-MM-YYYY) : 29-05-2021                                               =
| Time (hh:mm:ss)   : 19:50:52                                                 =
|                                                                              =
| All units are atomic (Hartree, Bohr, etc.)                                   =
================================================================================
 
********************************************************************************
* Ground-state run starting from atomic densities                              *
********************************************************************************
 
++++++++++++++++++++++++++++++++++++++++++++++++++++++++++++++++++++++++++++++++
+ Starting initialization                                                      +
++++++++++++++++++++++++++++++++++++++++++++++++++++++++++++++++++++++++++++++++
 
 Lattice vectors (cartesian) :
      8.7635553970      0.0000000000      0.0000000000
      0.0000000000      8.7635553970      0.0000000000
      0.0000000000      0.0000000000      5.6100154650
 
 Reciprocal lattice vectors (cartesian) :
      0.7169676030      0.0000000000      0.0000000000
      0.0000000000      0.7169676030      0.0000000000
      0.0000000000      0.0000000000      1.1199942935
 
 Unit cell volume                           :     430.8486446417
 Brillouin zone volume                      :       0.5757247157
 
 Species :    1 (Ti)
     parameters loaded from                 :    Ti.xml
     name                                   :    titanium
     nuclear charge                         :     -22.00000000
     electronic charge                      :      22.00000000
     atomic mass                            :   87256.20311000
     muffin-tin radius                      :       1.80000000
     # of radial points in muffin-tin       :     350
 
     atomic positions (lattice) :
       1 :   0.00000000  0.00000000  0.00000000
       2 :   0.50000000  0.50000000  0.50000000
 
 Species :    2 (O)
     parameters loaded from                 :    O.xml
     name                                   :    oxygen
     nuclear charge                         :      -8.00000000
     electronic charge                      :       8.00000000
     atomic mass                            :   29165.12203000
     muffin-tin radius                      :       1.80000000
     # of radial points in muffin-tin       :     250
 
     atomic positions (lattice) :
       1 :   0.30508536  0.30508536  0.00000000
       2 :   0.69491464  0.69491464  0.00000000
       3 :   0.19491464  0.80508536  0.50000000
       4 :   0.80508536  0.19491464  0.50000000
 
 Total number of atoms per unit cell        :       6
 
 Spin treatment                             :    spin-unpolarised
 
 Number of Bravais lattice symmetries       :      16
 Number of crystal symmetries               :      16
 
 k-point grid                               :       4    4    6
 Total number of k-points                   :      24
 k-point set is reduced with crystal symmetries
 
 R^MT_min * |G+k|_max (rgkmax)              :       7.00000000
 Species with R^MT_min                      :       1 (Ti)
 Maximum |G+k| for APW functions            :       3.88888889
 Maximum |G| for potential and density      :      12.00000000
 
 G-vector grid sizes                        :      36    36    24
 Total number of G-vectors                  :   12537
 
 Maximum angular momentum used for
     APW functions                          :       8
     computing H and O matrix elements      :       8
     potential and density                  :       8
     inner part of muffin-tin               :       2
 
 Total nuclear charge                       :     -76.00000000
 Total electronic charge                    :      76.00000000
 Total core charge                          :      28.00000000
 Total valence charge                       :      48.00000000
 
 Number of empty states                     :       5
 Total number of valence states             :      30
 
 Maximum Hamiltonian size                   :     485
 Maximum number of plane-waves              :     443
 Total number of local-orbitals             :      42
 
 Exchange-correlation type                  :      22
     PBEsol, Phys. Rev. Lett. 100, 136406 (2008)
     Generalised gradient approximation (GGA)
 
 Smearing scheme                            :    Gaussian
 Smearing width                             :       0.00100000
 
 Using multisecant Broyden potential mixing
 
++++++++++++++++++++++++++++++++++++++++++++++++++++++++++++++++++++++++++++++++
+ Ending initialization                                                        +
++++++++++++++++++++++++++++++++++++++++++++++++++++++++++++++++++++++++++++++++
 
********************************************************************************
* Groundstate module started                                                   *
********************************************************************************
 Output level for this task is set to normal
 
++++++++++++++++++++++++++++++++++++++++++++++++++++++++++++++++++++++++++++++++
+ Self-consistent loop started                                                 +
++++++++++++++++++++++++++++++++++++++++++++++++++++++++++++++++++++++++++++++++
 Density and potential initialised from atomic data
 
 
++++++++++++++++++++++++++++++++++++++++++++++++++++++++++++++++++++++++++++++++
+ SCF iteration number :    1                                                  +
++++++++++++++++++++++++++++++++++++++++++++++++++++++++++++++++++++++++++++++++
 Total energy                               :     -1999.19663852
 _______________________________________________________________
 Fermi energy                               :         0.20472026
 Kinetic energy                             :      2028.56876896
 Coulomb energy                             :     -3911.62865694
 Exchange energy                            :      -112.67450737
 Correlation energy                         :        -3.46224318
 
 DOS at Fermi energy (states/Ha/cell)       :         0.00000000
 
 Electron charges :
     core                                   :        28.00000000
     core leakage                           :         0.00000115
     valence                                :        48.00000000
     interstitial                           :         6.29249499
     charge in muffin-tin spheres :
                  atom     1    Ti          :        18.15285731
                  atom     2    Ti          :        18.15285731
                  atom     3     O          :         8.35044760
                  atom     4     O          :         8.35044760
                  atom     5     O          :         8.35044760
                  atom     6     O          :         8.35044760
     total charge in muffin-tins            :        69.70750501
     total charge                           :        76.00000000
 
 Estimated fundamental gap                  :         0.21216271
        valence-band maximum at    1      0.0000  0.0000  0.0000
     conduction-band minimum at    1      0.0000  0.0000  0.0000
 
 Wall time (seconds)                        :         3.24
 
++++++++++++++++++++++++++++++++++++++++++++++++++++++++++++++++++++++++++++++++
+ SCF iteration number :    2                                                  +
++++++++++++++++++++++++++++++++++++++++++++++++++++++++++++++++++++++++++++++++
 Total energy                               :     -2006.40137358
 _______________________________________________________________
 Fermi energy                               :         0.21355094
 Kinetic energy                             :      2021.44786203
 Coulomb energy                             :     -3912.26523613
 Exchange energy                            :      -112.10031132
 Correlation energy                         :        -3.48368816
 
 DOS at Fermi energy (states/Ha/cell)       :         0.00000000
 
 Electron charges :
     core                                   :        28.00000000
     core leakage                           :         0.00000110
     valence                                :        48.00000000
     interstitial                           :         7.18279471
     charge in muffin-tin spheres :
                  atom     1    Ti          :        18.78985617
                  atom     2    Ti          :        18.78985617
                  atom     3     O          :         7.80937324
                  atom     4     O          :         7.80937324
                  atom     5     O          :         7.80937324
                  atom     6     O          :         7.80937324
     total charge in muffin-tins            :        68.81720529
     total charge                           :        76.00000000
 
 Estimated fundamental gap                  :         0.07175896
        valence-band maximum at    1      0.0000  0.0000  0.0000
     conduction-band minimum at    1      0.0000  0.0000  0.0000
 
 Wall time (seconds)                        :         5.83
 
 RMS change in effective potential (target) :  0.763250      ( 0.100000E-05)
 Absolute change in total energy   (target) :   7.20474      ( 0.100000E-05)
 Charge distance                   (target) :  0.587209E-01  ( 0.100000E-04)
 
++++++++++++++++++++++++++++++++++++++++++++++++++++++++++++++++++++++++++++++++
+ SCF iteration number :    3                                                  +
++++++++++++++++++++++++++++++++++++++++++++++++++++++++++++++++++++++++++++++++
 Total energy                               :     -2007.32799852
 _______________________________________________________________
 Fermi energy                               :         0.21405574
 Kinetic energy                             :      2020.49027020
 Coulomb energy                             :     -3912.27522316
 Exchange energy                            :      -112.05654570
 Correlation energy                         :        -3.48649987
 
 DOS at Fermi energy (states/Ha/cell)       :         0.00000000
 
 Electron charges :
     core                                   :        28.00000000
     core leakage                           :         0.00000110
     valence                                :        48.00000000
     interstitial                           :         7.27150048
     charge in muffin-tin spheres :
                  atom     1    Ti          :        18.88104260
                  atom     2    Ti          :        18.88104260
                  atom     3     O          :         7.74160358
                  atom     4     O          :         7.74160358
                  atom     5     O          :         7.74160358
                  atom     6     O          :         7.74160358
     total charge in muffin-tins            :        68.72849952
     total charge                           :        76.00000000
 
 Estimated fundamental gap                  :         0.05991748
        valence-band maximum at    1      0.0000  0.0000  0.0000
     conduction-band minimum at    1      0.0000  0.0000  0.0000
 
 Wall time (seconds)                        :         8.43
 
 RMS change in effective potential (target) :  0.558545      ( 0.100000E-05)
 Absolute change in total energy   (target) :  0.926625      ( 0.100000E-05)
 Charge distance                   (target) :  0.720145E-02  ( 0.100000E-04)
 
++++++++++++++++++++++++++++++++++++++++++++++++++++++++++++++++++++++++++++++++
+ SCF iteration number :    4                                                  +
++++++++++++++++++++++++++++++++++++++++++++++++++++++++++++++++++++++++++++++++
 Total energy                               :     -2000.72941734
 _______________________________________________________________
 Fermi energy                               :         0.22426907
 Kinetic energy                             :      2025.07518469
 Coulomb energy                             :     -3910.29949352
 Exchange energy                            :      -112.02685517
 Correlation energy                         :        -3.47825334
 
 DOS at Fermi energy (states/Ha/cell)       :         0.00000000
 
 Electron charges :
     core                                   :        28.00000000
     core leakage                           :         0.00000113
     valence                                :        48.00000000
     interstitial                           :         7.17349602
     charge in muffin-tin spheres :
                  atom     1    Ti          :        18.59901912
                  atom     2    Ti          :        18.59901912
                  atom     3     O          :         7.90711643
                  atom     4     O          :         7.90711643
                  atom     5     O          :         7.90711643
                  atom     6     O          :         7.90711643
     total charge in muffin-tins            :        68.82650398
     total charge                           :        76.00000000
 
 Estimated fundamental gap                  :         0.10750339
        valence-band maximum at    1      0.0000  0.0000  0.0000
     conduction-band minimum at    1      0.0000  0.0000  0.0000
 
 Wall time (seconds)                        :        11.02
 
 RMS change in effective potential (target) :  0.709290E-01  ( 0.100000E-05)
 Absolute change in total energy   (target) :   6.59858      ( 0.100000E-05)
 Charge distance                   (target) :  0.192016E-01  ( 0.100000E-04)
 
++++++++++++++++++++++++++++++++++++++++++++++++++++++++++++++++++++++++++++++++
+ SCF iteration number :    5                                                  +
++++++++++++++++++++++++++++++++++++++++++++++++++++++++++++++++++++++++++++++++
 Total energy                               :     -2011.84876850
 _______________________________________________________________
 Fermi energy                               :         0.20218127
 Kinetic energy                             :      2017.49479831
 Coulomb energy                             :     -3913.70589893
 Exchange energy                            :      -112.14777571
 Correlation energy                         :        -3.48989216
 
 DOS at Fermi energy (states/Ha/cell)       :         0.00000000
 
 Electron charges :
     core                                   :        28.00000000
     core leakage                           :         0.00000110
     valence                                :        48.00000000
     interstitial                           :         7.27451032
     charge in muffin-tin spheres :
                  atom     1    Ti          :        19.06531843
                  atom     2    Ti          :        19.06531843
                  atom     3     O          :         7.64871320
                  atom     4     O          :         7.64871320
                  atom     5     O          :         7.64871320
                  atom     6     O          :         7.64871320
     total charge in muffin-tins            :        68.72548968
     total charge                           :        76.00000000
 
 Estimated fundamental gap                  :         0.04214331
        valence-band maximum at    1      0.0000  0.0000  0.0000
     conduction-band minimum at    1      0.0000  0.0000  0.0000
 
 Wall time (seconds)                        :        13.62
 
 RMS change in effective potential (target) :  0.559107E-01  ( 0.100000E-05)
 Absolute change in total energy   (target) :   11.1194      ( 0.100000E-05)
 Charge distance                   (target) :  0.295663E-01  ( 0.100000E-04)
 
++++++++++++++++++++++++++++++++++++++++++++++++++++++++++++++++++++++++++++++++
+ SCF iteration number :    6                                                  +
++++++++++++++++++++++++++++++++++++++++++++++++++++++++++++++++++++++++++++++++
 Total energy                               :     -2006.16420628
 _______________________________________________________________
 Fermi energy                               :         0.21511742
 Kinetic energy                             :      2021.04042268
 Coulomb energy                             :     -3911.69611185
 Exchange energy                            :      -112.02273814
 Correlation energy                         :        -3.48577897
 
 DOS at Fermi energy (states/Ha/cell)       :         0.00000000
 
 Electron charges :
     core                                   :        28.00000000
     core leakage                           :         0.00000112
     valence                                :        48.00000000
     interstitial                           :         7.30402996
     charge in muffin-tin spheres :
                  atom     1    Ti          :        18.86777612
                  atom     2    Ti          :        18.86777612
                  atom     3     O          :         7.74010445
                  atom     4     O          :         7.74010445
                  atom     5     O          :         7.74010445
                  atom     6     O          :         7.74010445
     total charge in muffin-tins            :        68.69597004
     total charge                           :        76.00000000
 
 Estimated fundamental gap                  :         0.06439215
        valence-band maximum at    1      0.0000  0.0000  0.0000
     conduction-band minimum at    1      0.0000  0.0000  0.0000
 
 Wall time (seconds)                        :        16.20
 
 RMS change in effective potential (target) :  0.449778E-02  ( 0.100000E-05)
 Absolute change in total energy   (target) :   5.68456      ( 0.100000E-05)
 Charge distance                   (target) :  0.116275E-01  ( 0.100000E-04)
 
++++++++++++++++++++++++++++++++++++++++++++++++++++++++++++++++++++++++++++++++
+ SCF iteration number :    7                                                  +
++++++++++++++++++++++++++++++++++++++++++++++++++++++++++++++++++++++++++++++++
 Total energy                               :     -2005.97134110
 _______________________________________________________________
 Fermi energy                               :         0.21484957
 Kinetic energy                             :      2021.29865635
 Coulomb energy                             :     -3911.74688329
 Exchange energy                            :      -112.03817487
 Correlation energy                         :        -3.48493929
 
 DOS at Fermi energy (states/Ha/cell)       :         0.00000000
 
 Electron charges :
     core                                   :        28.00000000
     core leakage                           :         0.00000111
     valence                                :        48.00000000
     interstitial                           :         7.27912218
     charge in muffin-tin spheres :
                  atom     1    Ti          :        18.84319234
                  atom     2    Ti          :        18.84319234
                  atom     3     O          :         7.75862328
                  atom     4     O          :         7.75862328
                  atom     5     O          :         7.75862328
                  atom     6     O          :         7.75862328
     total charge in muffin-tins            :        68.72087782
     total charge                           :        76.00000000
 
 Estimated fundamental gap                  :         0.06785858
        valence-band maximum at    1      0.0000  0.0000  0.0000
     conduction-band minimum at    1      0.0000  0.0000  0.0000
 
 Wall time (seconds)                        :        18.78
 
 RMS change in effective potential (target) :  0.281182E-02  ( 0.100000E-05)
 Absolute change in total energy   (target) :  0.192865      ( 0.100000E-05)
 Charge distance                   (target) :  0.198539E-02  ( 0.100000E-04)
 
++++++++++++++++++++++++++++++++++++++++++++++++++++++++++++++++++++++++++++++++
+ SCF iteration number :    8                                                  +
++++++++++++++++++++++++++++++++++++++++++++++++++++++++++++++++++++++++++++++++
 Total energy                               :     -2006.18832934
 _______________________________________________________________
 Fermi energy                               :         0.21448926
 Kinetic energy                             :      2021.13393089
 Coulomb energy                             :     -3911.79858450
 Exchange energy                            :      -112.03842833
 Correlation energy                         :        -3.48524740
 
 DOS at Fermi energy (states/Ha/cell)       :         0.00000000
 
 Electron charges :
     core                                   :        28.00000000
     core leakage                           :         0.00000111
     valence                                :        48.00000000
     interstitial                           :         7.28382656
     charge in muffin-tin spheres :
                  atom     1    Ti          :        18.85448471
                  atom     2    Ti          :        18.85448471
                  atom     3     O          :         7.75180100
                  atom     4     O          :         7.75180100
                  atom     5     O          :         7.75180100
                  atom     6     O          :         7.75180100
     total charge in muffin-tins            :        68.71617344
     total charge                           :        76.00000000
 
 Estimated fundamental gap                  :         0.06632462
        valence-band maximum at    1      0.0000  0.0000  0.0000
     conduction-band minimum at    1      0.0000  0.0000  0.0000
 
 Wall time (seconds)                        :        21.36
 
 RMS change in effective potential (target) :  0.135890E-03  ( 0.100000E-05)
 Absolute change in total energy   (target) :  0.216988      ( 0.100000E-05)
 Charge distance                   (target) :  0.752777E-03  ( 0.100000E-04)
 
++++++++++++++++++++++++++++++++++++++++++++++++++++++++++++++++++++++++++++++++
+ SCF iteration number :    9                                                  +
++++++++++++++++++++++++++++++++++++++++++++++++++++++++++++++++++++++++++++++++
 Total energy                               :     -2006.16730354
 _______________________________________________________________
 Fermi energy                               :         0.21454536
 Kinetic energy                             :      2021.14628529
 Coulomb energy                             :     -3911.79050067
 Exchange energy                            :      -112.03785138
 Correlation energy                         :        -3.48523678
 
 DOS at Fermi energy (states/Ha/cell)       :         0.00000000
 
 Electron charges :
     core                                   :        28.00000000
     core leakage                           :         0.00000111
     valence                                :        48.00000000
     interstitial                           :         7.28409822
     charge in muffin-tin spheres :
                  atom     1    Ti          :        18.85387223
                  atom     2    Ti          :        18.85387223
                  atom     3     O          :         7.75203933
                  atom     4     O          :         7.75203933
                  atom     5     O          :         7.75203933
                  atom     6     O          :         7.75203933
     total charge in muffin-tins            :        68.71590178
     total charge                           :        76.00000000
 
 Estimated fundamental gap                  :         0.06640171
        valence-band maximum at    1      0.0000  0.0000  0.0000
     conduction-band minimum at    1      0.0000  0.0000  0.0000
 
 Wall time (seconds)                        :        23.96
 
 RMS change in effective potential (target) :  0.373495E-04  ( 0.100000E-05)
 Absolute change in total energy   (target) :  0.210258E-01  ( 0.100000E-05)
 Charge distance                   (target) :  0.345969E-04  ( 0.100000E-04)
 
++++++++++++++++++++++++++++++++++++++++++++++++++++++++++++++++++++++++++++++++
+ SCF iteration number :   10                                                  +
++++++++++++++++++++++++++++++++++++++++++++++++++++++++++++++++++++++++++++++++
 Total energy                               :     -2006.17117322
 _______________________________________________________________
 Fermi energy                               :         0.21453529
 Kinetic energy                             :      2021.14380448
 Coulomb energy                             :     -3911.79180202
 Exchange energy                            :      -112.03793616
 Correlation energy                         :        -3.48523952
 
 DOS at Fermi energy (states/Ha/cell)       :         0.00000000
 
 Electron charges :
     core                                   :        28.00000000
     core leakage                           :         0.00000111
     valence                                :        48.00000000
     interstitial                           :         7.28407482
     charge in muffin-tin spheres :
                  atom     1    Ti          :        18.85401161
                  atom     2    Ti          :        18.85401161
                  atom     3     O          :         7.75197549
                  atom     4     O          :         7.75197549
                  atom     5     O          :         7.75197549
                  atom     6     O          :         7.75197549
     total charge in muffin-tins            :        68.71592518
     total charge                           :        76.00000000
 
 Estimated fundamental gap                  :         0.06638298
        valence-band maximum at    1      0.0000  0.0000  0.0000
     conduction-band minimum at    1      0.0000  0.0000  0.0000
 
 Wall time (seconds)                        :        26.56
 
 RMS change in effective potential (target) :  0.107672E-05  ( 0.100000E-05)
 Absolute change in total energy   (target) :  0.386968E-02  ( 0.100000E-05)
 Charge distance                   (target) :  0.824835E-05  ( 0.100000E-04)
 
++++++++++++++++++++++++++++++++++++++++++++++++++++++++++++++++++++++++++++++++
+ SCF iteration number :   11                                                  +
++++++++++++++++++++++++++++++++++++++++++++++++++++++++++++++++++++++++++++++++
 Total energy                               :     -2006.17129905
 _______________________________________________________________
 Fermi energy                               :         0.21453498
 Kinetic energy                             :      2021.14371513
 Coulomb energy                             :     -3911.79183754
 Exchange energy                            :      -112.03793696
 Correlation energy                         :        -3.48523969
 
 DOS at Fermi energy (states/Ha/cell)       :         0.00000000
 
 Electron charges :
     core                                   :        28.00000000
     core leakage                           :         0.00000111
     valence                                :        48.00000000
     interstitial                           :         7.28407596
     charge in muffin-tin spheres :
                  atom     1    Ti          :        18.85401607
                  atom     2    Ti          :        18.85401607
                  atom     3     O          :         7.75197297
                  atom     4     O          :         7.75197297
                  atom     5     O          :         7.75197297
                  atom     6     O          :         7.75197297
     total charge in muffin-tins            :        68.71592404
     total charge                           :        76.00000000
 
 Estimated fundamental gap                  :         0.06638236
        valence-band maximum at    1      0.0000  0.0000  0.0000
     conduction-band minimum at    1      0.0000  0.0000  0.0000
 
 Wall time (seconds)                        :        29.16
 
 RMS change in effective potential (target) :  0.816348E-06  ( 0.100000E-05)
 Absolute change in total energy   (target) :  0.125822E-03  ( 0.100000E-05)
 Charge distance                   (target) :  0.533415E-06  ( 0.100000E-04)
 
++++++++++++++++++++++++++++++++++++++++++++++++++++++++++++++++++++++++++++++++
+ SCF iteration number :   12                                                  +
++++++++++++++++++++++++++++++++++++++++++++++++++++++++++++++++++++++++++++++++
 Total energy                               :     -2006.17124828
 _______________________________________________________________
 Fermi energy                               :         0.21453507
 Kinetic energy                             :      2021.14376524
 Coulomb energy                             :     -3911.79183618
 Exchange energy                            :      -112.03793777
 Correlation energy                         :        -3.48523957
 
 DOS at Fermi energy (states/Ha/cell)       :         0.00000000
 
 Electron charges :
     core                                   :        28.00000000
     core leakage                           :         0.00000111
     valence                                :        48.00000000
     interstitial                           :         7.28407419
     charge in muffin-tin spheres :
                  atom     1    Ti          :        18.85401274
                  atom     2    Ti          :        18.85401274
                  atom     3     O          :         7.75197508
                  atom     4     O          :         7.75197508
                  atom     5     O          :         7.75197508
                  atom     6     O          :         7.75197508
     total charge in muffin-tins            :        68.71592581
     total charge                           :        76.00000000
 
 Estimated fundamental gap                  :         0.06638282
        valence-band maximum at    1      0.0000  0.0000  0.0000
     conduction-band minimum at    1      0.0000  0.0000  0.0000
 
 Wall time (seconds)                        :        31.76
 
 RMS change in effective potential (target) :  0.524112E-07  ( 0.100000E-05)
 Absolute change in total energy   (target) :  0.507634E-04  ( 0.100000E-05)
 Charge distance                   (target) :  0.284535E-06  ( 0.100000E-04)
 
++++++++++++++++++++++++++++++++++++++++++++++++++++++++++++++++++++++++++++++++
+ SCF iteration number :   13                                                  +
++++++++++++++++++++++++++++++++++++++++++++++++++++++++++++++++++++++++++++++++
 Total energy                               :     -2006.17125280
 _______________________________________________________________
 Fermi energy                               :         0.21453506
 Kinetic energy                             :      2021.14376370
 Coulomb energy                             :     -3911.79183895
 Exchange energy                            :      -112.03793798
 Correlation energy                         :        -3.48523958
 
 DOS at Fermi energy (states/Ha/cell)       :         0.00000000
 
 Electron charges :
     core                                   :        28.00000000
     core leakage                           :         0.00000111
     valence                                :        48.00000000
     interstitial                           :         7.28407409
     charge in muffin-tin spheres :
                  atom     1    Ti          :        18.85401278
                  atom     2    Ti          :        18.85401278
                  atom     3     O          :         7.75197509
                  atom     4     O          :         7.75197509
                  atom     5     O          :         7.75197509
                  atom     6     O          :         7.75197509
     total charge in muffin-tins            :        68.71592591
     total charge                           :        76.00000000
 
 Estimated fundamental gap                  :         0.06638282
        valence-band maximum at    1      0.0000  0.0000  0.0000
     conduction-band minimum at    1      0.0000  0.0000  0.0000
 
 Wall time (seconds)                        :        34.34
 
 RMS change in effective potential (target) :  0.225726E-07  ( 0.100000E-05)
 Absolute change in total energy   (target) :  0.451830E-05  ( 0.100000E-05)
 Charge distance                   (target) :  0.119134E-07  ( 0.100000E-04)
 
++++++++++++++++++++++++++++++++++++++++++++++++++++++++++++++++++++++++++++++++
+ SCF iteration number :   14                                                  +
++++++++++++++++++++++++++++++++++++++++++++++++++++++++++++++++++++++++++++++++
 Total energy                               :     -2006.17125201
 _______________________________________________________________
 Fermi energy                               :         0.21453506
 Kinetic energy                             :      2021.14376265
 Coulomb energy                             :     -3911.79183723
 Exchange energy                            :      -112.03793785
 Correlation energy                         :        -3.48523958
 
 DOS at Fermi energy (states/Ha/cell)       :         0.00000000
 
 Electron charges :
     core                                   :        28.00000000
     core leakage                           :         0.00000111
     valence                                :        48.00000000
     interstitial                           :         7.28407415
     charge in muffin-tin spheres :
                  atom     1    Ti          :        18.85401285
                  atom     2    Ti          :        18.85401285
                  atom     3     O          :         7.75197504
                  atom     4     O          :         7.75197504
                  atom     5     O          :         7.75197504
                  atom     6     O          :         7.75197504
     total charge in muffin-tins            :        68.71592585
     total charge                           :        76.00000000
 
 Estimated fundamental gap                  :         0.06638281
        valence-band maximum at    1      0.0000  0.0000  0.0000
     conduction-band minimum at    1      0.0000  0.0000  0.0000
 
 Wall time (seconds)                        :        36.93
 
 RMS change in effective potential (target) :  0.115749E-07  ( 0.100000E-05)
 Absolute change in total energy   (target) :  0.794427E-06  ( 0.100000E-05)
 Charge distance                   (target) :  0.665256E-08  ( 0.100000E-04)
 
++++++++++++++++++++++++++++++++++++++++++++++++++++++++++++++++++++++++++++++++
+ SCF iteration number :   15                                                  +
++++++++++++++++++++++++++++++++++++++++++++++++++++++++++++++++++++++++++++++++
 Total energy                               :     -2006.17125237
 _______________________________________________________________
 Fermi energy                               :         0.21453506
 Kinetic energy                             :      2021.14376200
 Coulomb energy                             :     -3911.79183696
 Exchange energy                            :      -112.03793783
 Correlation energy                         :        -3.48523958
 
 DOS at Fermi energy (states/Ha/cell)       :         0.00000000
 
 Electron charges :
     core                                   :        28.00000000
     core leakage                           :         0.00000111
     valence                                :        48.00000000
     interstitial                           :         7.28407416
     charge in muffin-tin spheres :
                  atom     1    Ti          :        18.85401288
                  atom     2    Ti          :        18.85401288
                  atom     3     O          :         7.75197502
                  atom     4     O          :         7.75197502
                  atom     5     O          :         7.75197502
                  atom     6     O          :         7.75197502
     total charge in muffin-tins            :        68.71592584
     total charge                           :        76.00000000
 
 Estimated fundamental gap                  :         0.06638281
        valence-band maximum at    1      0.0000  0.0000  0.0000
     conduction-band minimum at    1      0.0000  0.0000  0.0000
 
 Wall time (seconds)                        :        39.52
 
 RMS change in effective potential (target) :  0.636403E-08  ( 0.100000E-05)
 Absolute change in total energy   (target) :  0.366889E-06  ( 0.100000E-05)
 Charge distance                   (target) :  0.200582E-08  ( 0.100000E-04)
                                                                                
++++++++++++++++++++++++++++++++++++++++++++++++++++++++++++++++++++++++++++++++
| Convergency criteria checked for the last 2 iterations                       +
| Convergence targets achieved. Performing final SCF iteration                 +
++++++++++++++++++++++++++++++++++++++++++++++++++++++++++++++++++++++++++++++++
 Total energy                               :     -2006.17125364
 _______________________________________________________________
 Fermi energy                               :         0.21453506
 Kinetic energy                             :      2021.14376196
 Coulomb energy                             :     -3911.79183813
 Exchange energy                            :      -112.03793790
 Correlation energy                         :        -3.48523958
 
 DOS at Fermi energy (states/Ha/cell)       :         0.00000000
 
 Electron charges :
     core                                   :        28.00000000
     core leakage                           :         0.00000111
     valence                                :        48.00000000
     interstitial                           :         7.28407415
     charge in muffin-tin spheres :
                  atom     1    Ti          :        18.85401289
                  atom     2    Ti          :        18.85401289
                  atom     3     O          :         7.75197502
                  atom     4     O          :         7.75197502
                  atom     5     O          :         7.75197502
                  atom     6     O          :         7.75197502
     total charge in muffin-tins            :        68.71592585
     total charge                           :        76.00000000
 
 Estimated fundamental gap                  :         0.06638281
        valence-band maximum at    1      0.0000  0.0000  0.0000
     conduction-band minimum at    1      0.0000  0.0000  0.0000
 
++++++++++++++++++++++++++++++++++++++++++++++++++++++++++++++++++++++++++++++++
+ Self-consistent loop stopped                                                 +
++++++++++++++++++++++++++++++++++++++++++++++++++++++++++++++++++++++++++++++++
 STATE.OUT is written
 
********************************************************************************
* Groundstate module stopped                                                   *
********************************************************************************
 
 Total time spent (seconds)                 :        41.82
================================================================================
| EXCITING OXYGEN stopped                                                      =
================================================================================
