================================================================================
| EXCITING OXYGEN started                                                      =
| version hash id: 857b78c25a3bf566878cbdb26efd4618f4636ab8                    =
|                                                                              =
| compiler: ifort (IFORT) 19.0.0.117 20180804                                  =
|                                                                              =
|                                                                              =
| Date (DD-MM-YYYY) : 26-09-2022                                               =
| Time (hh:mm:ss)   : 13:25:31                                                 =
|                                                                              =
| All units are atomic (Hartree, Bohr, etc.)                                   =
================================================================================
 
********************************************************************************
* Ground-state run starting from atomic densities                              *
********************************************************************************
 
++++++++++++++++++++++++++++++++++++++++++++++++++++++++++++++++++++++++++++++++
+ Starting initialization                                                      +
++++++++++++++++++++++++++++++++++++++++++++++++++++++++++++++++++++++++++++++++
 
 Lattice vectors (cartesian) :
      8.7635553970      0.0000000000      0.0000000000
      0.0000000000      8.7635553970      0.0000000000
      0.0000000000      0.0000000000      5.6100154650
 
 Reciprocal lattice vectors (cartesian) :
      0.7169676030      0.0000000000      0.0000000000
      0.0000000000      0.7169676030      0.0000000000
      0.0000000000      0.0000000000      1.1199942935
 
 Unit cell volume                           :     430.8486446417
 Brillouin zone volume                      :       0.5757247157
 
 Species :    1 (Ti)
     parameters loaded from                 :    Ti.xml
     name                                   :    titanium
     nuclear charge                         :     -22.00000000
     electronic charge                      :      22.00000000
     atomic mass                            :   87256.20311000
     muffin-tin radius                      :       1.80000000
     # of radial points in muffin-tin       :     350
 
     atomic positions (lattice) :
       1 :   0.00000000  0.00000000  0.00000000
       2 :   0.50000000  0.50000000  0.50000000
 
 Species :    2 (O)
     parameters loaded from                 :    O.xml
     name                                   :    oxygen
     nuclear charge                         :      -8.00000000
     electronic charge                      :       8.00000000
     atomic mass                            :   29165.12203000
     muffin-tin radius                      :       1.80000000
     # of radial points in muffin-tin       :     250
 
     atomic positions (lattice) :
       1 :   0.30508536  0.30508536  0.00000000
       2 :   0.69491464  0.69491464  0.00000000
       3 :   0.19491464  0.80508536  0.50000000
       4 :   0.80508536  0.19491464  0.50000000
 
 Total number of atoms per unit cell        :       6
 
 Spin treatment                             :    spin-unpolarised
 
 Number of Bravais lattice symmetries       :      16
 Number of crystal symmetries               :      16
 
 k-point grid                               :       1    1    2
 Total number of k-points                   :       2
 k-point set is reduced with crystal symmetries
 
 R^MT_min * |G+k|_max (rgkmax)              :       7.00000000
 Species with R^MT_min                      :       1 (Ti)
 Maximum |G+k| for APW functions            :       3.88888889
 Maximum |G| for potential and density      :      12.00000000
 
 G-vector grid sizes                        :      36    36    24
 Total number of G-vectors                  :   12537
 
 Maximum angular momentum used for
     APW functions                          :       8
     computing H and O matrix elements      :       8
     potential and density                  :       8
     inner part of muffin-tin               :       2
 
 Total nuclear charge                       :     -76.00000000
 Total electronic charge                    :      76.00000000
 Total core charge                          :      28.00000000
 Total valence charge                       :      48.00000000
 
 Number of empty states                     :       5
 Total number of valence states             :      30
 
 Maximum Hamiltonian size                   :     481
 Maximum number of plane-waves              :     439
 Total number of local-orbitals             :      42
 
 Exchange-correlation type                  :      22
     PBEsol, Phys. Rev. Lett. 100, 136406 (2008)
     Generalised gradient approximation (GGA)
 
 Smearing scheme                            :    Gaussian
 Smearing width                             :       0.00100000
 
 Using multisecant Broyden potential mixing
 
++++++++++++++++++++++++++++++++++++++++++++++++++++++++++++++++++++++++++++++++
+ Ending initialization                                                        +
++++++++++++++++++++++++++++++++++++++++++++++++++++++++++++++++++++++++++++++++
 
********************************************************************************
* Groundstate module started                                                   *
********************************************************************************
 Output level for this task is set to normal
 
++++++++++++++++++++++++++++++++++++++++++++++++++++++++++++++++++++++++++++++++
+ Self-consistent loop started                                                 +
++++++++++++++++++++++++++++++++++++++++++++++++++++++++++++++++++++++++++++++++
 Density and potential initialised from atomic data
 
 
++++++++++++++++++++++++++++++++++++++++++++++++++++++++++++++++++++++++++++++++
+ SCF iteration number :    1                                                  +
++++++++++++++++++++++++++++++++++++++++++++++++++++++++++++++++++++++++++++++++
 Total energy                               :     -1999.03922006
 _______________________________________________________________
 Fermi energy                               :         0.20472026
 Kinetic energy                             :      2028.70915165
 Coulomb energy                             :     -3911.59709169
 Exchange energy                            :      -112.68975641
 Correlation energy                         :        -3.46152361
 
 DOS at Fermi energy (states/Ha/cell)       :         0.00000000
 
 Electron charges :
     core                                   :        28.00000000
     core leakage                           :         0.00000115
     valence                                :        48.00000000
     interstitial                           :         6.27349624
     charge in muffin-tin spheres :
                  atom     1    Ti          :        18.13266161
                  atom     2    Ti          :        18.13266161
                  atom     3     O          :         8.36529514
                  atom     4     O          :         8.36529514
                  atom     5     O          :         8.36529514
                  atom     6     O          :         8.36529514
     total charge in muffin-tins            :        69.72650376
     total charge                           :        76.00000000
 
 Estimated fundamental gap                  :         0.21216271
        valence-band maximum at    1      0.0000  0.0000  0.0000
     conduction-band minimum at    1      0.0000  0.0000  0.0000
 
 Wall time (seconds)                        :         2.27
 
++++++++++++++++++++++++++++++++++++++++++++++++++++++++++++++++++++++++++++++++
+ SCF iteration number :    2                                                  +
++++++++++++++++++++++++++++++++++++++++++++++++++++++++++++++++++++++++++++++++
 Total energy                               :     -2005.45893289
 _______________________________________________________________
 Fermi energy                               :         0.21345453
 Kinetic energy                             :      2022.25942188
 Coulomb energy                             :     -3912.11692633
 Exchange energy                            :      -112.12034909
 Correlation energy                         :        -3.48107935
 
 DOS at Fermi energy (states/Ha/cell)       :         0.00000000
 
 Electron charges :
     core                                   :        28.00000000
     core leakage                           :         0.00000110
     valence                                :        48.00000000
     interstitial                           :         7.13644034
     charge in muffin-tin spheres :
                  atom     1    Ti          :        18.70409058
                  atom     2    Ti          :        18.70409058
                  atom     3     O          :         7.86384462
                  atom     4     O          :         7.86384462
                  atom     5     O          :         7.86384462
                  atom     6     O          :         7.86384462
     total charge in muffin-tins            :        68.86355966
     total charge                           :        76.00000000
 
 Estimated fundamental gap                  :         0.06899881
        valence-band maximum at    1      0.0000  0.0000  0.0000
     conduction-band minimum at    1      0.0000  0.0000  0.0000
 
 Wall time (seconds)                        :         3.79
 
 RMS change in effective potential (target) :  0.762872      ( 0.100000E-05)
 Absolute change in total energy   (target) :   6.41971      ( 0.100000E-05)
 Charge distance                   (target) :  0.548288E-01  ( 0.100000E-04)
 
++++++++++++++++++++++++++++++++++++++++++++++++++++++++++++++++++++++++++++++++
+ SCF iteration number :    3                                                  +
++++++++++++++++++++++++++++++++++++++++++++++++++++++++++++++++++++++++++++++++
 Total energy                               :     -2007.38110207
 _______________________________________________________________
 Fermi energy                               :         0.21271784
 Kinetic energy                             :      2020.48848007
 Coulomb energy                             :     -3912.32291861
 Exchange energy                            :      -112.06103440
 Correlation energy                         :        -3.48562912
 
 DOS at Fermi energy (states/Ha/cell)       :         0.00000000
 
 Electron charges :
     core                                   :        28.00000000
     core leakage                           :         0.00000110
     valence                                :        48.00000000
     interstitial                           :         7.26827935
     charge in muffin-tin spheres :
                  atom     1    Ti          :        18.85445772
                  atom     2    Ti          :        18.85445772
                  atom     3     O          :         7.75570130
                  atom     4     O          :         7.75570130
                  atom     5     O          :         7.75570130
                  atom     6     O          :         7.75570130
     total charge in muffin-tins            :        68.73172065
     total charge                           :        76.00000000
 
 Estimated fundamental gap                  :         0.04673517
        valence-band maximum at    1      0.0000  0.0000  0.0000
     conduction-band minimum at    1      0.0000  0.0000  0.0000
 
 Wall time (seconds)                        :         5.30
 
 RMS change in effective potential (target) :  0.557168      ( 0.100000E-05)
 Absolute change in total energy   (target) :   1.92217      ( 0.100000E-05)
 Charge distance                   (target) :  0.115546E-01  ( 0.100000E-04)
 
++++++++++++++++++++++++++++++++++++++++++++++++++++++++++++++++++++++++++++++++
+ SCF iteration number :    4                                                  +
++++++++++++++++++++++++++++++++++++++++++++++++++++++++++++++++++++++++++++++++
 Total energy                               :     -1996.20084012
 _______________________________________________________________
 Fermi energy                               :         0.23391850
 Kinetic energy                             :      2028.01765013
 Coulomb energy                             :     -3908.75285998
 Exchange energy                            :      -111.99219059
 Correlation energy                         :        -3.47343968
 
 DOS at Fermi energy (states/Ha/cell)       :         0.00000000
 
 Electron charges :
     core                                   :        28.00000000
     core leakage                           :         0.00000115
     valence                                :        48.00000000
     interstitial                           :         7.11877831
     charge in muffin-tin spheres :
                  atom     1    Ti          :        18.41877716
                  atom     2    Ti          :        18.41877716
                  atom     3     O          :         8.01091684
                  atom     4     O          :         8.01091684
                  atom     5     O          :         8.01091684
                  atom     6     O          :         8.01091684
     total charge in muffin-tins            :        68.88122169
     total charge                           :        76.00000000
 
 Estimated fundamental gap                  :         0.13445366
        valence-band maximum at    1      0.0000  0.0000  0.0000
     conduction-band minimum at    1      0.0000  0.0000  0.0000
 
 Wall time (seconds)                        :         6.84
 
 RMS change in effective potential (target) :  0.120908      ( 0.100000E-05)
 Absolute change in total energy   (target) :   11.1803      ( 0.100000E-05)
 Charge distance                   (target) :  0.293767E-01  ( 0.100000E-04)
 
++++++++++++++++++++++++++++++++++++++++++++++++++++++++++++++++++++++++++++++++
+ SCF iteration number :    5                                                  +
++++++++++++++++++++++++++++++++++++++++++++++++++++++++++++++++++++++++++++++++
 Total energy                               :     -2012.56669733
 _______________________________________________________________
 Fermi energy                               :         0.19619849
 Kinetic energy                             :      2017.46289027
 Coulomb energy                             :     -3914.31816940
 Exchange energy                            :      -112.22404876
 Correlation energy                         :        -3.48736944
 
 DOS at Fermi energy (states/Ha/cell)       :         0.00000000
 
 Electron charges :
     core                                   :        28.00000000
     core leakage                           :         0.00000109
     valence                                :        48.00000000
     interstitial                           :         7.18848667
     charge in muffin-tin spheres :
                  atom     1    Ti          :        19.01123404
                  atom     2    Ti          :        19.01123404
                  atom     3     O          :         7.69726131
                  atom     4     O          :         7.69726131
                  atom     5     O          :         7.69726131
                  atom     6     O          :         7.69726131
     total charge in muffin-tins            :        68.81151333
     total charge                           :        76.00000000
 
 Estimated fundamental gap                  :         0.03222182
        valence-band maximum at    1      0.0000  0.0000  0.0000
     conduction-band minimum at    1      0.0000  0.0000  0.0000
 
 Wall time (seconds)                        :         8.38
 
 RMS change in effective potential (target) :  0.563128E-01  ( 0.100000E-05)
 Absolute change in total energy   (target) :   16.3659      ( 0.100000E-05)
 Charge distance                   (target) :  0.369712E-01  ( 0.100000E-04)
 
++++++++++++++++++++++++++++++++++++++++++++++++++++++++++++++++++++++++++++++++
+ SCF iteration number :    6                                                  +
++++++++++++++++++++++++++++++++++++++++++++++++++++++++++++++++++++++++++++++++
 Total energy                               :     -2006.12334217
 _______________________________________________________________
 Fermi energy                               :         0.21347291
 Kinetic energy                             :      2021.09014725
 Coulomb energy                             :     -3911.69898414
 Exchange energy                            :      -112.02975347
 Correlation energy                         :        -3.48475181
 
 DOS at Fermi energy (states/Ha/cell)       :         0.00000000
 
 Electron charges :
     core                                   :        28.00000000
     core leakage                           :         0.00000111
     valence                                :        48.00000000
     interstitial                           :         7.29286263
     charge in muffin-tin spheres :
                  atom     1    Ti          :        18.83653758
                  atom     2    Ti          :        18.83653758
                  atom     3     O          :         7.75851556
                  atom     4     O          :         7.75851556
                  atom     5     O          :         7.75851556
                  atom     6     O          :         7.75851556
     total charge in muffin-tins            :        68.70713737
     total charge                           :        76.00000000
 
 Estimated fundamental gap                  :         0.05211110
        valence-band maximum at    1      0.0000  0.0000  0.0000
     conduction-band minimum at    1      0.0000  0.0000  0.0000
 
 Wall time (seconds)                        :         9.90
 
 RMS change in effective potential (target) :  0.477004E-02  ( 0.100000E-05)
 Absolute change in total energy   (target) :   6.44336      ( 0.100000E-05)
 Charge distance                   (target) :  0.979716E-02  ( 0.100000E-04)
 
++++++++++++++++++++++++++++++++++++++++++++++++++++++++++++++++++++++++++++++++
+ SCF iteration number :    7                                                  +
++++++++++++++++++++++++++++++++++++++++++++++++++++++++++++++++++++++++++++++++
 Total energy                               :     -2005.86909825
 _______________________________________________________________
 Fermi energy                               :         0.21342706
 Kinetic energy                             :      2021.40055476
 Coulomb energy                             :     -3911.74100513
 Exchange energy                            :      -112.04480044
 Correlation energy                         :        -3.48384744
 
 DOS at Fermi energy (states/Ha/cell)       :         0.00000000
 
 Electron charges :
     core                                   :        28.00000000
     core leakage                           :         0.00000111
     valence                                :        48.00000000
     interstitial                           :         7.26755278
     charge in muffin-tin spheres :
                  atom     1    Ti          :        18.80886911
                  atom     2    Ti          :        18.80886911
                  atom     3     O          :         7.77867725
                  atom     4     O          :         7.77867725
                  atom     5     O          :         7.77867725
                  atom     6     O          :         7.77867725
     total charge in muffin-tins            :        68.73244722
     total charge                           :        76.00000000
 
 Estimated fundamental gap                  :         0.05624694
        valence-band maximum at    1      0.0000  0.0000  0.0000
     conduction-band minimum at    1      0.0000  0.0000  0.0000
 
 Wall time (seconds)                        :        11.42
 
 RMS change in effective potential (target) :  0.356031E-02  ( 0.100000E-05)
 Absolute change in total energy   (target) :  0.254244      ( 0.100000E-05)
 Charge distance                   (target) :  0.217683E-02  ( 0.100000E-04)
 
++++++++++++++++++++++++++++++++++++++++++++++++++++++++++++++++++++++++++++++++
+ SCF iteration number :    8                                                  +
++++++++++++++++++++++++++++++++++++++++++++++++++++++++++++++++++++++++++++++++
 Total energy                               :     -2006.14363270
 _______________________________________________________________
 Fermi energy                               :         0.21293254
 Kinetic energy                             :      2021.18887469
 Coulomb energy                             :     -3911.80313927
 Exchange energy                            :      -112.04513933
 Correlation energy                         :        -3.48422879
 
 DOS at Fermi energy (states/Ha/cell)       :         0.00000000
 
 Electron charges :
     core                                   :        28.00000000
     core leakage                           :         0.00000111
     valence                                :        48.00000000
     interstitial                           :         7.27318365
     charge in muffin-tin spheres :
                  atom     1    Ti          :        18.82309460
                  atom     2    Ti          :        18.82309460
                  atom     3     O          :         7.77015679
                  atom     4     O          :         7.77015679
                  atom     5     O          :         7.77015679
                  atom     6     O          :         7.77015679
     total charge in muffin-tins            :        68.72681635
     total charge                           :        76.00000000
 
 Estimated fundamental gap                  :         0.05413196
        valence-band maximum at    1      0.0000  0.0000  0.0000
     conduction-band minimum at    1      0.0000  0.0000  0.0000
 
 Wall time (seconds)                        :        12.95
 
 RMS change in effective potential (target) :  0.171513E-03  ( 0.100000E-05)
 Absolute change in total energy   (target) :  0.274534      ( 0.100000E-05)
 Charge distance                   (target) :  0.951759E-03  ( 0.100000E-04)
 
++++++++++++++++++++++++++++++++++++++++++++++++++++++++++++++++++++++++++++++++
+ SCF iteration number :    9                                                  +
++++++++++++++++++++++++++++++++++++++++++++++++++++++++++++++++++++++++++++++++
 Total energy                               :     -2006.12035014
 _______________________________________________________________
 Fermi energy                               :         0.21298678
 Kinetic energy                             :      2021.20514743
 Coulomb energy                             :     -3911.79645905
 Exchange energy                            :      -112.04483287
 Correlation energy                         :        -3.48420564
 
 DOS at Fermi energy (states/Ha/cell)       :         0.00000000
 
 Electron charges :
     core                                   :        28.00000000
     core leakage                           :         0.00000111
     valence                                :        48.00000000
     interstitial                           :         7.27309201
     charge in muffin-tin spheres :
                  atom     1    Ti          :        18.82212566
                  atom     2    Ti          :        18.82212566
                  atom     3     O          :         7.77066417
                  atom     4     O          :         7.77066417
                  atom     5     O          :         7.77066417
                  atom     6     O          :         7.77066417
     total charge in muffin-tins            :        68.72690799
     total charge                           :        76.00000000
 
 Estimated fundamental gap                  :         0.05427843
        valence-band maximum at    1      0.0000  0.0000  0.0000
     conduction-band minimum at    1      0.0000  0.0000  0.0000
 
 Wall time (seconds)                        :        14.47
 
 RMS change in effective potential (target) :  0.100291E-03  ( 0.100000E-05)
 Absolute change in total energy   (target) :  0.232826E-01  ( 0.100000E-05)
 Charge distance                   (target) :  0.613448E-04  ( 0.100000E-04)
 
++++++++++++++++++++++++++++++++++++++++++++++++++++++++++++++++++++++++++++++++
+ SCF iteration number :   10                                                  +
++++++++++++++++++++++++++++++++++++++++++++++++++++++++++++++++++++++++++++++++
 Total energy                               :     -2006.13114797
 _______________________________________________________________
 Fermi energy                               :         0.21295644
 Kinetic energy                             :      2021.19838834
 Coulomb energy                             :     -3911.80022596
 Exchange energy                            :      -112.04509824
 Correlation energy                         :        -3.48421212
 
 DOS at Fermi energy (states/Ha/cell)       :         0.00000000
 
 Electron charges :
     core                                   :        28.00000000
     core leakage                           :         0.00000111
     valence                                :        48.00000000
     interstitial                           :         7.27297400
     charge in muffin-tin spheres :
                  atom     1    Ti          :        18.82247213
                  atom     2    Ti          :        18.82247213
                  atom     3     O          :         7.77052043
                  atom     4     O          :         7.77052043
                  atom     5     O          :         7.77052043
                  atom     6     O          :         7.77052043
     total charge in muffin-tins            :        68.72702600
     total charge                           :        76.00000000
 
 Estimated fundamental gap                  :         0.05422745
        valence-band maximum at    1      0.0000  0.0000  0.0000
     conduction-band minimum at    1      0.0000  0.0000  0.0000
 
 Wall time (seconds)                        :        16.00
 
 RMS change in effective potential (target) :  0.797638E-05  ( 0.100000E-05)
 Absolute change in total energy   (target) :  0.107978E-01  ( 0.100000E-05)
 Charge distance                   (target) :  0.204580E-04  ( 0.100000E-04)
 
++++++++++++++++++++++++++++++++++++++++++++++++++++++++++++++++++++++++++++++++
+ SCF iteration number :   11                                                  +
++++++++++++++++++++++++++++++++++++++++++++++++++++++++++++++++++++++++++++++++
 Total energy                               :     -2006.13192718
 _______________________________________________________________
 Fermi energy                               :         0.21295483
 Kinetic energy                             :      2021.19792803
 Coulomb energy                             :     -3911.80053026
 Exchange energy                            :      -112.04511223
 Correlation energy                         :        -3.48421272
 
 DOS at Fermi energy (states/Ha/cell)       :         0.00000000
 
 Electron charges :
     core                                   :        28.00000000
     core leakage                           :         0.00000111
     valence                                :        48.00000000
     interstitial                           :         7.27297647
     charge in muffin-tin spheres :
                  atom     1    Ti          :        18.82250082
                  atom     2    Ti          :        18.82250082
                  atom     3     O          :         7.77050547
                  atom     4     O          :         7.77050547
                  atom     5     O          :         7.77050547
                  atom     6     O          :         7.77050547
     total charge in muffin-tins            :        68.72702353
     total charge                           :        76.00000000
 
 Estimated fundamental gap                  :         0.05422333
        valence-band maximum at    1      0.0000  0.0000  0.0000
     conduction-band minimum at    1      0.0000  0.0000  0.0000
 
 Wall time (seconds)                        :        17.53
 
 RMS change in effective potential (target) :  0.658937E-06  ( 0.100000E-05)
 Absolute change in total energy   (target) :  0.779204E-03  ( 0.100000E-05)
 Charge distance                   (target) :  0.182632E-05  ( 0.100000E-04)
 
++++++++++++++++++++++++++++++++++++++++++++++++++++++++++++++++++++++++++++++++
+ SCF iteration number :   12                                                  +
++++++++++++++++++++++++++++++++++++++++++++++++++++++++++++++++++++++++++++++++
 Total energy                               :     -2006.13188509
 _______________________________________________________________
 Fermi energy                               :         0.21295493
 Kinetic energy                             :      2021.19794227
 Coulomb energy                             :     -3911.80050451
 Exchange energy                            :      -112.04511011
 Correlation energy                         :        -3.48421274
 
 DOS at Fermi energy (states/Ha/cell)       :         0.00000000
 
 Electron charges :
     core                                   :        28.00000000
     core leakage                           :         0.00000111
     valence                                :        48.00000000
     interstitial                           :         7.27297785
     charge in muffin-tin spheres :
                  atom     1    Ti          :        18.82249990
                  atom     2    Ti          :        18.82249990
                  atom     3     O          :         7.77050558
                  atom     4     O          :         7.77050558
                  atom     5     O          :         7.77050558
                  atom     6     O          :         7.77050558
     total charge in muffin-tins            :        68.72702215
     total charge                           :        76.00000000
 
 Estimated fundamental gap                  :         0.05422349
        valence-band maximum at    1      0.0000  0.0000  0.0000
     conduction-band minimum at    1      0.0000  0.0000  0.0000
 
 Wall time (seconds)                        :        19.06
 
 RMS change in effective potential (target) :  0.128093E-06  ( 0.100000E-05)
 Absolute change in total energy   (target) :  0.420902E-04  ( 0.100000E-05)
 Charge distance                   (target) :  0.232455E-06  ( 0.100000E-04)
 
++++++++++++++++++++++++++++++++++++++++++++++++++++++++++++++++++++++++++++++++
+ SCF iteration number :   13                                                  +
++++++++++++++++++++++++++++++++++++++++++++++++++++++++++++++++++++++++++++++++
 Total energy                               :     -2006.13187244
 _______________________________________________________________
 Fermi energy                               :         0.21295496
 Kinetic energy                             :      2021.19795057
 Coulomb energy                             :     -3911.80050026
 Exchange energy                            :      -112.04511004
 Correlation energy                         :        -3.48421272
 
 DOS at Fermi energy (states/Ha/cell)       :         0.00000000
 
 Electron charges :
     core                                   :        28.00000000
     core leakage                           :         0.00000111
     valence                                :        48.00000000
     interstitial                           :         7.27297762
     charge in muffin-tin spheres :
                  atom     1    Ti          :        18.82249940
                  atom     2    Ti          :        18.82249940
                  atom     3     O          :         7.77050589
                  atom     4     O          :         7.77050589
                  atom     5     O          :         7.77050589
                  atom     6     O          :         7.77050589
     total charge in muffin-tins            :        68.72702238
     total charge                           :        76.00000000
 
 Estimated fundamental gap                  :         0.05422356
        valence-band maximum at    1      0.0000  0.0000  0.0000
     conduction-band minimum at    1      0.0000  0.0000  0.0000
 
 Wall time (seconds)                        :        20.59
 
 RMS change in effective potential (target) :  0.419797E-07  ( 0.100000E-05)
 Absolute change in total energy   (target) :  0.126440E-04  ( 0.100000E-05)
 Charge distance                   (target) :  0.415259E-07  ( 0.100000E-04)
 
++++++++++++++++++++++++++++++++++++++++++++++++++++++++++++++++++++++++++++++++
+ SCF iteration number :   14                                                  +
++++++++++++++++++++++++++++++++++++++++++++++++++++++++++++++++++++++++++++++++
 Total energy                               :     -2006.13187483
 _______________________________________________________________
 Fermi energy                               :         0.21295495
 Kinetic energy                             :      2021.19794837
 Coulomb energy                             :     -3911.80050046
 Exchange energy                            :      -112.04511000
 Correlation energy                         :        -3.48421273
 
 DOS at Fermi energy (states/Ha/cell)       :         0.00000000
 
 Electron charges :
     core                                   :        28.00000000
     core leakage                           :         0.00000111
     valence                                :        48.00000000
     interstitial                           :         7.27297770
     charge in muffin-tin spheres :
                  atom     1    Ti          :        18.82249955
                  atom     2    Ti          :        18.82249955
                  atom     3     O          :         7.77050580
                  atom     4     O          :         7.77050580
                  atom     5     O          :         7.77050580
                  atom     6     O          :         7.77050580
     total charge in muffin-tins            :        68.72702230
     total charge                           :        76.00000000
 
 Estimated fundamental gap                  :         0.05422354
        valence-band maximum at    1      0.0000  0.0000  0.0000
     conduction-band minimum at    1      0.0000  0.0000  0.0000
 
 Wall time (seconds)                        :        22.12
 
 RMS change in effective potential (target) :  0.453443E-08  ( 0.100000E-05)
 Absolute change in total energy   (target) :  0.238249E-05  ( 0.100000E-05)
 Charge distance                   (target) :  0.103423E-07  ( 0.100000E-04)
 
++++++++++++++++++++++++++++++++++++++++++++++++++++++++++++++++++++++++++++++++
+ SCF iteration number :   15                                                  +
++++++++++++++++++++++++++++++++++++++++++++++++++++++++++++++++++++++++++++++++
 Total energy                               :     -2006.13187513
 _______________________________________________________________
 Fermi energy                               :         0.21295495
 Kinetic energy                             :      2021.19794812
 Coulomb energy                             :     -3911.80050052
 Exchange energy                            :      -112.04511000
 Correlation energy                         :        -3.48421273
 
 DOS at Fermi energy (states/Ha/cell)       :         0.00000000
 
 Electron charges :
     core                                   :        28.00000000
     core leakage                           :         0.00000111
     valence                                :        48.00000000
     interstitial                           :         7.27297771
     charge in muffin-tin spheres :
                  atom     1    Ti          :        18.82249956
                  atom     2    Ti          :        18.82249956
                  atom     3     O          :         7.77050579
                  atom     4     O          :         7.77050579
                  atom     5     O          :         7.77050579
                  atom     6     O          :         7.77050579
     total charge in muffin-tins            :        68.72702229
     total charge                           :        76.00000000
 
 Estimated fundamental gap                  :         0.05422354
        valence-band maximum at    1      0.0000  0.0000  0.0000
     conduction-band minimum at    1      0.0000  0.0000  0.0000
 
 Wall time (seconds)                        :        23.65
 
 RMS change in effective potential (target) :  0.100431E-08  ( 0.100000E-05)
 Absolute change in total energy   (target) :  0.306104E-06  ( 0.100000E-05)
 Charge distance                   (target) :  0.893437E-09  ( 0.100000E-04)
 
++++++++++++++++++++++++++++++++++++++++++++++++++++++++++++++++++++++++++++++++
+ SCF iteration number :   16                                                  +
++++++++++++++++++++++++++++++++++++++++++++++++++++++++++++++++++++++++++++++++
 Total energy                               :     -2006.13187570
 _______________________________________________________________
 Fermi energy                               :         0.21295495
 Kinetic energy                             :      2021.19794823
 Coulomb energy                             :     -3911.80050116
 Exchange energy                            :      -112.04511004
 Correlation energy                         :        -3.48421273
 
 DOS at Fermi energy (states/Ha/cell)       :         0.00000000
 
 Electron charges :
     core                                   :        28.00000000
     core leakage                           :         0.00000111
     valence                                :        48.00000000
     interstitial                           :         7.27297770
     charge in muffin-tin spheres :
                  atom     1    Ti          :        18.82249956
                  atom     2    Ti          :        18.82249956
                  atom     3     O          :         7.77050579
                  atom     4     O          :         7.77050579
                  atom     5     O          :         7.77050579
                  atom     6     O          :         7.77050579
     total charge in muffin-tins            :        68.72702230
     total charge                           :        76.00000000
 
 Estimated fundamental gap                  :         0.05422354
        valence-band maximum at    1      0.0000  0.0000  0.0000
     conduction-band minimum at    1      0.0000  0.0000  0.0000
 
 Wall time (seconds)                        :        25.18
 
 RMS change in effective potential (target) :  0.398692E-08  ( 0.100000E-05)
 Absolute change in total energy   (target) :  0.566037E-06  ( 0.100000E-05)
 Charge distance                   (target) :  0.102635E-08  ( 0.100000E-04)
                                                                                
++++++++++++++++++++++++++++++++++++++++++++++++++++++++++++++++++++++++++++++++
| Convergency criteria checked for the last 2 iterations                       +
| Convergence targets achieved. Performing final SCF iteration                 +
++++++++++++++++++++++++++++++++++++++++++++++++++++++++++++++++++++++++++++++++
 Total energy                               :     -2006.13187569
 _______________________________________________________________
 Fermi energy                               :         0.21295495
 Kinetic energy                             :      2021.19794833
 Coulomb energy                             :     -3911.80050125
 Exchange energy                            :      -112.04511004
 Correlation energy                         :        -3.48421273
 
 DOS at Fermi energy (states/Ha/cell)       :         0.00000000
 
 Electron charges :
     core                                   :        28.00000000
     core leakage                           :         0.00000111
     valence                                :        48.00000000
     interstitial                           :         7.27297771
     charge in muffin-tin spheres :
                  atom     1    Ti          :        18.82249956
                  atom     2    Ti          :        18.82249956
                  atom     3     O          :         7.77050579
                  atom     4     O          :         7.77050579
                  atom     5     O          :         7.77050579
                  atom     6     O          :         7.77050579
     total charge in muffin-tins            :        68.72702229
     total charge                           :        76.00000000
 
 Estimated fundamental gap                  :         0.05422354
        valence-band maximum at    1      0.0000  0.0000  0.0000
     conduction-band minimum at    1      0.0000  0.0000  0.0000
 
++++++++++++++++++++++++++++++++++++++++++++++++++++++++++++++++++++++++++++++++
+ Self-consistent loop stopped                                                 +
++++++++++++++++++++++++++++++++++++++++++++++++++++++++++++++++++++++++++++++++
 STATE.OUT is written
 
********************************************************************************
* Groundstate module stopped                                                   *
********************************************************************************
 
 Total time spent (seconds)                 :        22.06
================================================================================
| EXCITING OXYGEN stopped                                                      =
================================================================================
