================================================================================
| EXCITING NITROGEN-14 started                                                 =
| version hash id: 1775bff4453c84689fb848894a9224f155377cfc                    =
|                                                                              =
|                                                                              =
| Date (DD-MM-YYYY) : 10-12-2020                                               =
| Time (hh:mm:ss)   : 19:57:37                                                 =
|                                                                              =
| All units are atomic (Hartree, Bohr, etc.)                                   =
================================================================================
 
********************************************************************************
* Ground-state run starting from atomic densities                              *
********************************************************************************
 
++++++++++++++++++++++++++++++++++++++++++++++++++++++++++++++++++++++++++++++++
+ Starting initialization                                                      +
++++++++++++++++++++++++++++++++++++++++++++++++++++++++++++++++++++++++++++++++
 
 Lattice vectors (cartesian) :
      5.1300000000      5.1300000000      0.0000000000
      5.1300000000      0.0000000000      5.1300000000
      0.0000000000      5.1300000000      5.1300000000
 
 Reciprocal lattice vectors (cartesian) :
      0.6123962288      0.6123962288     -0.6123962288
      0.6123962288     -0.6123962288      0.6123962288
     -0.6123962288      0.6123962288      0.6123962288
 
 Unit cell volume                           :     270.0113940000
 Brillouin zone volume                      :       0.9186657265
 
 Species :    1 (Si)
     parameters loaded from                 :    Si.xml
     name                                   :    silicon
     nuclear charge                         :     -14.00000000
     electronic charge                      :      14.00000000
     atomic mass                            :   51196.73454000
     muffin-tin radius                      :       2.10000000
     # of radial points in muffin-tin       :     300
 
     atomic positions (lattice) :
       1 :   0.00000000  0.00000000  0.00000000
       2 :   0.25000000  0.25000000  0.25000000
 
 Total number of atoms per unit cell        :       2
 
 Spin treatment                             :    spin-unpolarised
 
 Number of Bravais lattice symmetries       :      48
 Number of crystal symmetries               :      48
 
 k-point grid                               :       2    2    2
 Total number of k-points                   :       3
 k-point set is reduced with crystal symmetries
 
 R^MT_min * |G+k|_max (rgkmax)              :       6.00000000
 Species with R^MT_min                      :       1 (Si)
 Maximum |G+k| for APW functions            :       2.85714286
 Maximum |G| for potential and density      :      12.00000000
 Polynomial order for pseudochg. density    :       9
 
 G-vector grid sizes                        :      30    30    30
 Total number of G-vectors                  :    7799
 
 Maximum angular momentum used for
     APW functions                          :       8
     computing H and O matrix elements      :       8
     potential and density                  :       8
     inner part of muffin-tin               :       2
 
 Total nuclear charge                       :     -28.00000000
 Total electronic charge                    :      28.00000000
 Total core charge                          :      20.00000000
 Total valence charge                       :       8.00000000
 
 Effective Wigner radius, r_s               :       1.32041916
 
 Number of empty states                     :       5
 Total number of valence states             :      10
 
 Maximum Hamiltonian size                   :     121
 Maximum number of plane-waves              :     113
 Total number of local-orbitals             :       8
 
 Exchange-correlation type                  :     406
     PBE0, M. Ernzerhof, G. E. Scuseria, J. Chem. Phys. 110 , 5029 (1999)
     Hybrid functional 
     Exchange type                          :       HF
     Mixing coefficient for exact exchange  :       0.25000000
 
 Smearing scheme                            :    Extended linear tetrahedron method
 
 Using multisecant Broyden potential mixing
 
++++++++++++++++++++++++++++++++++++++++++++++++++++++++++++++++++++++++++++++++
+ Ending initialization                                                        +
++++++++++++++++++++++++++++++++++++++++++++++++++++++++++++++++++++++++++++++++
 
********************************************************************************
* Hybrids module started                                                        
********************************************************************************
 
 Performing PBE self-consistent run
 Storing STATE_PBE.OUT
 
++++++++++++++++++++++++++++++++++++++++++++++++++++++++++++++++++++++++++++++++
+ Hybrids iteration number :    1                                               
++++++++++++++++++++++++++++++++++++++++++++++++++++++++++++++++++++++++++++++++
 
 Info(calc_vxnl):
    mdim, nblk, mblksiz:       20       1 1000000
    ---> rank, ikp, iq =        0       1       1
    locmatsiz, ngk, matsiz, mbsiz:     318     113     431     430
    iblk, mstart, mend, size(minm) (Mb):       1       1      20          1.31
    ---> rank, ikp, iq =        0       1       2
    locmatsiz, ngk, matsiz, mbsiz:     318     108     426     426
    iblk, mstart, mend, size(minm) (Mb):       1       1      20          1.30
    ---> rank, ikp, iq =        0       1       3
    locmatsiz, ngk, matsiz, mbsiz:     318     108     426     426
    iblk, mstart, mend, size(minm) (Mb):       1       1      20          1.30
    ---> rank, ikp, iq =        0       1       4
    locmatsiz, ngk, matsiz, mbsiz:     318     108     426     426
    iblk, mstart, mend, size(minm) (Mb):       1       1      20          1.30
    ---> rank, ikp, iq =        0       1       5
    locmatsiz, ngk, matsiz, mbsiz:     318     108     426     426
    iblk, mstart, mend, size(minm) (Mb):       1       1      20          1.30
    ---> rank, ikp, iq =        0       1       6
    locmatsiz, ngk, matsiz, mbsiz:     318     108     426     426
    iblk, mstart, mend, size(minm) (Mb):       1       1      20          1.30
    ---> rank, ikp, iq =        0       1       7
    locmatsiz, ngk, matsiz, mbsiz:     318     108     426     426
    iblk, mstart, mend, size(minm) (Mb):       1       1      20          1.30
    ---> rank, ikp, iq =        0       1       8
    locmatsiz, ngk, matsiz, mbsiz:     318     108     426     426
    iblk, mstart, mend, size(minm) (Mb):       1       1      20          1.30
    ---> rank, ikp, iq =        0       2       1
    locmatsiz, ngk, matsiz, mbsiz:     318     113     431     430
    iblk, mstart, mend, size(minm) (Mb):       1       1      20          1.31
    ---> rank, ikp, iq =        0       2       2
    locmatsiz, ngk, matsiz, mbsiz:     318     108     426     426
    iblk, mstart, mend, size(minm) (Mb):       1       1      20          1.30
    ---> rank, ikp, iq =        0       2       3
    locmatsiz, ngk, matsiz, mbsiz:     318     108     426     426
    iblk, mstart, mend, size(minm) (Mb):       1       1      20          1.30
    ---> rank, ikp, iq =        0       2       4
    locmatsiz, ngk, matsiz, mbsiz:     318     108     426     426
    iblk, mstart, mend, size(minm) (Mb):       1       1      20          1.30
    ---> rank, ikp, iq =        0       2       5
    locmatsiz, ngk, matsiz, mbsiz:     318     108     426     426
    iblk, mstart, mend, size(minm) (Mb):       1       1      20          1.30
    ---> rank, ikp, iq =        0       2       6
    locmatsiz, ngk, matsiz, mbsiz:     318     108     426     426
    iblk, mstart, mend, size(minm) (Mb):       1       1      20          1.30
    ---> rank, ikp, iq =        0       2       7
    locmatsiz, ngk, matsiz, mbsiz:     318     108     426     426
    iblk, mstart, mend, size(minm) (Mb):       1       1      20          1.30
    ---> rank, ikp, iq =        0       2       8
    locmatsiz, ngk, matsiz, mbsiz:     318     108     426     426
    iblk, mstart, mend, size(minm) (Mb):       1       1      20          1.30
    ---> rank, ikp, iq =        0       3       1
    locmatsiz, ngk, matsiz, mbsiz:     318     113     431     430
    iblk, mstart, mend, size(minm) (Mb):       1       1      20          1.31
    ---> rank, ikp, iq =        0       3       2
    locmatsiz, ngk, matsiz, mbsiz:     318     108     426     426
    iblk, mstart, mend, size(minm) (Mb):       1       1      20          1.30
    ---> rank, ikp, iq =        0       3       3
    locmatsiz, ngk, matsiz, mbsiz:     318     108     426     426
    iblk, mstart, mend, size(minm) (Mb):       1       1      20          1.30
    ---> rank, ikp, iq =        0       3       4
    locmatsiz, ngk, matsiz, mbsiz:     318     108     426     426
    iblk, mstart, mend, size(minm) (Mb):       1       1      20          1.30
    ---> rank, ikp, iq =        0       3       5
    locmatsiz, ngk, matsiz, mbsiz:     318     108     426     426
    iblk, mstart, mend, size(minm) (Mb):       1       1      20          1.30
    ---> rank, ikp, iq =        0       3       6
    locmatsiz, ngk, matsiz, mbsiz:     318     108     426     426
    iblk, mstart, mend, size(minm) (Mb):       1       1      20          1.30
    ---> rank, ikp, iq =        0       3       7
    locmatsiz, ngk, matsiz, mbsiz:     318     108     426     426
    iblk, mstart, mend, size(minm) (Mb):       1       1      20          1.30
    ---> rank, ikp, iq =        0       3       8
    locmatsiz, ngk, matsiz, mbsiz:     318     108     426     426
    iblk, mstart, mend, size(minm) (Mb):       1       1      20          1.30
 
 CPU time for vxnl (seconds)                :         5.63
 CPU time for vnlmat (seconds)              :         0.03
 CPU time for scf_cycle (seconds)           :        11.20
 
 Total energy                               :      -570.41269890
 _______________________________________________________________
 Fermi energy                               :         0.20842053
 Kinetic energy                             :       581.39619330
 Coulomb energy                             :     -1119.61078329
 Non-local exchange energy                  :        -2.43123641
 Exchange energy                            :       -31.10649434
 Correlation energy                         :        -1.09161456
 Sum of eigenvalues                         :      -316.81887958
 Effective potential energy                 :      -885.20779868
 Coulomb potential energy                   :      -844.40129323
 xc potential energy                        :       -40.80650545
 Hartree energy                             :       187.46195982
 Electron-nuclear energy                    :     -1219.32521286
 Nuclear-nuclear energy                     :       -87.74753025
 Madelung energy                            :      -697.41013668
 Core-electron kinetic energy               :       570.66518796
 
 DOS at Fermi energy (states/Ha/cell)       :         0.00000000
 
 Electron charges :
     core                                   :        20.00000000
     core leakage                           :         0.00453459
     valence                                :         8.00000000
     interstitial                           :         3.96068904
     charge in muffin-tin spheres :
                  atom     1    Si          :        12.01965548
                  atom     2    Si          :        12.01965548
     total charge in muffin-tins            :        24.03931096
     total charge                           :        28.00000000
 
 Estimated fundamental gap                  :         0.08954325
        valence-band maximum at    1      0.0000  0.0000  0.0000
     conduction-band minimum at    3      0.0000  0.5000  0.5000
 
 Charge distance                   (target) :  0.818632E-02 ( 0.100000E-04)
 
++++++++++++++++++++++++++++++++++++++++++++++++++++++++++++++++++++++++++++++++
+ Hybrids iteration number :    2                                               
++++++++++++++++++++++++++++++++++++++++++++++++++++++++++++++++++++++++++++++++
 
 Info(calc_vxnl):
    mdim, nblk, mblksiz:       20       1 1000000
    ---> rank, ikp, iq =        0       1       1
    locmatsiz, ngk, matsiz, mbsiz:     318     113     431     430
    iblk, mstart, mend, size(minm) (Mb):       1       1      20          1.31
    ---> rank, ikp, iq =        0       1       2
    locmatsiz, ngk, matsiz, mbsiz:     318     108     426     426
    iblk, mstart, mend, size(minm) (Mb):       1       1      20          1.30
    ---> rank, ikp, iq =        0       1       3
    locmatsiz, ngk, matsiz, mbsiz:     318     108     426     426
    iblk, mstart, mend, size(minm) (Mb):       1       1      20          1.30
    ---> rank, ikp, iq =        0       1       4
    locmatsiz, ngk, matsiz, mbsiz:     318     108     426     426
    iblk, mstart, mend, size(minm) (Mb):       1       1      20          1.30
    ---> rank, ikp, iq =        0       1       5
    locmatsiz, ngk, matsiz, mbsiz:     318     108     426     426
    iblk, mstart, mend, size(minm) (Mb):       1       1      20          1.30
    ---> rank, ikp, iq =        0       1       6
    locmatsiz, ngk, matsiz, mbsiz:     318     108     426     426
    iblk, mstart, mend, size(minm) (Mb):       1       1      20          1.30
    ---> rank, ikp, iq =        0       1       7
    locmatsiz, ngk, matsiz, mbsiz:     318     108     426     426
    iblk, mstart, mend, size(minm) (Mb):       1       1      20          1.30
    ---> rank, ikp, iq =        0       1       8
    locmatsiz, ngk, matsiz, mbsiz:     318     108     426     426
    iblk, mstart, mend, size(minm) (Mb):       1       1      20          1.30
    ---> rank, ikp, iq =        0       2       1
    locmatsiz, ngk, matsiz, mbsiz:     318     113     431     430
    iblk, mstart, mend, size(minm) (Mb):       1       1      20          1.31
    ---> rank, ikp, iq =        0       2       2
    locmatsiz, ngk, matsiz, mbsiz:     318     108     426     426
    iblk, mstart, mend, size(minm) (Mb):       1       1      20          1.30
    ---> rank, ikp, iq =        0       2       3
    locmatsiz, ngk, matsiz, mbsiz:     318     108     426     426
    iblk, mstart, mend, size(minm) (Mb):       1       1      20          1.30
    ---> rank, ikp, iq =        0       2       4
    locmatsiz, ngk, matsiz, mbsiz:     318     108     426     426
    iblk, mstart, mend, size(minm) (Mb):       1       1      20          1.30
    ---> rank, ikp, iq =        0       2       5
    locmatsiz, ngk, matsiz, mbsiz:     318     108     426     426
    iblk, mstart, mend, size(minm) (Mb):       1       1      20          1.30
    ---> rank, ikp, iq =        0       2       6
    locmatsiz, ngk, matsiz, mbsiz:     318     108     426     426
    iblk, mstart, mend, size(minm) (Mb):       1       1      20          1.30
    ---> rank, ikp, iq =        0       2       7
    locmatsiz, ngk, matsiz, mbsiz:     318     108     426     426
    iblk, mstart, mend, size(minm) (Mb):       1       1      20          1.30
    ---> rank, ikp, iq =        0       2       8
    locmatsiz, ngk, matsiz, mbsiz:     318     108     426     426
    iblk, mstart, mend, size(minm) (Mb):       1       1      20          1.30
    ---> rank, ikp, iq =        0       3       1
    locmatsiz, ngk, matsiz, mbsiz:     318     113     431     430
    iblk, mstart, mend, size(minm) (Mb):       1       1      20          1.31
    ---> rank, ikp, iq =        0       3       2
    locmatsiz, ngk, matsiz, mbsiz:     318     108     426     426
    iblk, mstart, mend, size(minm) (Mb):       1       1      20          1.30
    ---> rank, ikp, iq =        0       3       3
    locmatsiz, ngk, matsiz, mbsiz:     318     108     426     426
    iblk, mstart, mend, size(minm) (Mb):       1       1      20          1.30
    ---> rank, ikp, iq =        0       3       4
    locmatsiz, ngk, matsiz, mbsiz:     318     108     426     426
    iblk, mstart, mend, size(minm) (Mb):       1       1      20          1.30
    ---> rank, ikp, iq =        0       3       5
    locmatsiz, ngk, matsiz, mbsiz:     318     108     426     426
    iblk, mstart, mend, size(minm) (Mb):       1       1      20          1.30
    ---> rank, ikp, iq =        0       3       6
    locmatsiz, ngk, matsiz, mbsiz:     318     108     426     426
    iblk, mstart, mend, size(minm) (Mb):       1       1      20          1.30
    ---> rank, ikp, iq =        0       3       7
    locmatsiz, ngk, matsiz, mbsiz:     318     108     426     426
    iblk, mstart, mend, size(minm) (Mb):       1       1      20          1.30
    ---> rank, ikp, iq =        0       3       8
    locmatsiz, ngk, matsiz, mbsiz:     318     108     426     426
    iblk, mstart, mend, size(minm) (Mb):       1       1      20          1.30
 
 CPU time for vxnl (seconds)                :         5.22
 CPU time for vnlmat (seconds)              :         0.01
 CPU time for scf_cycle (seconds)           :         7.73
 
 Total energy                               :      -570.40717944
 _______________________________________________________________
 Fermi energy                               :         0.20974499
 Kinetic energy                             :       581.35904415
 Coulomb energy                             :     -1119.57609935
 Non-local exchange energy                  :        -2.41031862
 Exchange energy                            :       -31.09837051
 Correlation energy                         :        -1.09175373
 Sum of eigenvalues                         :      -316.81088467
 Effective potential energy                 :      -885.22036131
 Coulomb potential energy                   :      -844.41750224
 xc potential energy                        :       -40.80285906
 Hartree energy                             :       187.41106686
 Electron-nuclear energy                    :     -1219.23963597
 Nuclear-nuclear energy                     :       -87.74753025
 Madelung energy                            :      -697.36734823
 Core-electron kinetic energy               :       570.66518796
 
 DOS at Fermi energy (states/Ha/cell)       :         0.00000000
 
 Electron charges :
     core                                   :        20.00000000
     core leakage                           :         0.00453459
     valence                                :         8.00000000
     interstitial                           :         3.97101318
     charge in muffin-tin spheres :
                  atom     1    Si          :        12.01449341
                  atom     2    Si          :        12.01449341
     total charge in muffin-tins            :        24.02898682
     total charge                           :        28.00000000
 
 Estimated fundamental gap                  :         0.09084357
        valence-band maximum at    1      0.0000  0.0000  0.0000
     conduction-band minimum at    3      0.0000  0.5000  0.5000
 
 Charge distance                   (target) :  0.763482E-03 ( 0.100000E-04)
 
++++++++++++++++++++++++++++++++++++++++++++++++++++++++++++++++++++++++++++++++
+ Hybrids iteration number :    3                                               
++++++++++++++++++++++++++++++++++++++++++++++++++++++++++++++++++++++++++++++++
 
 Info(calc_vxnl):
    mdim, nblk, mblksiz:       20       1 1000000
    ---> rank, ikp, iq =        0       1       1
    locmatsiz, ngk, matsiz, mbsiz:     318     113     431     430
    iblk, mstart, mend, size(minm) (Mb):       1       1      20          1.31
    ---> rank, ikp, iq =        0       1       2
    locmatsiz, ngk, matsiz, mbsiz:     318     108     426     426
    iblk, mstart, mend, size(minm) (Mb):       1       1      20          1.30
    ---> rank, ikp, iq =        0       1       3
    locmatsiz, ngk, matsiz, mbsiz:     318     108     426     426
    iblk, mstart, mend, size(minm) (Mb):       1       1      20          1.30
    ---> rank, ikp, iq =        0       1       4
    locmatsiz, ngk, matsiz, mbsiz:     318     108     426     426
    iblk, mstart, mend, size(minm) (Mb):       1       1      20          1.30
    ---> rank, ikp, iq =        0       1       5
    locmatsiz, ngk, matsiz, mbsiz:     318     108     426     426
    iblk, mstart, mend, size(minm) (Mb):       1       1      20          1.30
    ---> rank, ikp, iq =        0       1       6
    locmatsiz, ngk, matsiz, mbsiz:     318     108     426     426
    iblk, mstart, mend, size(minm) (Mb):       1       1      20          1.30
    ---> rank, ikp, iq =        0       1       7
    locmatsiz, ngk, matsiz, mbsiz:     318     108     426     426
    iblk, mstart, mend, size(minm) (Mb):       1       1      20          1.30
    ---> rank, ikp, iq =        0       1       8
    locmatsiz, ngk, matsiz, mbsiz:     318     108     426     426
    iblk, mstart, mend, size(minm) (Mb):       1       1      20          1.30
    ---> rank, ikp, iq =        0       2       1
    locmatsiz, ngk, matsiz, mbsiz:     318     113     431     430
    iblk, mstart, mend, size(minm) (Mb):       1       1      20          1.31
    ---> rank, ikp, iq =        0       2       2
    locmatsiz, ngk, matsiz, mbsiz:     318     108     426     426
    iblk, mstart, mend, size(minm) (Mb):       1       1      20          1.30
    ---> rank, ikp, iq =        0       2       3
    locmatsiz, ngk, matsiz, mbsiz:     318     108     426     426
    iblk, mstart, mend, size(minm) (Mb):       1       1      20          1.30
    ---> rank, ikp, iq =        0       2       4
    locmatsiz, ngk, matsiz, mbsiz:     318     108     426     426
    iblk, mstart, mend, size(minm) (Mb):       1       1      20          1.30
    ---> rank, ikp, iq =        0       2       5
    locmatsiz, ngk, matsiz, mbsiz:     318     108     426     426
    iblk, mstart, mend, size(minm) (Mb):       1       1      20          1.30
    ---> rank, ikp, iq =        0       2       6
    locmatsiz, ngk, matsiz, mbsiz:     318     108     426     426
    iblk, mstart, mend, size(minm) (Mb):       1       1      20          1.30
    ---> rank, ikp, iq =        0       2       7
    locmatsiz, ngk, matsiz, mbsiz:     318     108     426     426
    iblk, mstart, mend, size(minm) (Mb):       1       1      20          1.30
    ---> rank, ikp, iq =        0       2       8
    locmatsiz, ngk, matsiz, mbsiz:     318     108     426     426
    iblk, mstart, mend, size(minm) (Mb):       1       1      20          1.30
    ---> rank, ikp, iq =        0       3       1
    locmatsiz, ngk, matsiz, mbsiz:     318     113     431     430
    iblk, mstart, mend, size(minm) (Mb):       1       1      20          1.31
    ---> rank, ikp, iq =        0       3       2
    locmatsiz, ngk, matsiz, mbsiz:     318     108     426     426
    iblk, mstart, mend, size(minm) (Mb):       1       1      20          1.30
    ---> rank, ikp, iq =        0       3       3
    locmatsiz, ngk, matsiz, mbsiz:     318     108     426     426
    iblk, mstart, mend, size(minm) (Mb):       1       1      20          1.30
    ---> rank, ikp, iq =        0       3       4
    locmatsiz, ngk, matsiz, mbsiz:     318     108     426     426
    iblk, mstart, mend, size(minm) (Mb):       1       1      20          1.30
    ---> rank, ikp, iq =        0       3       5
    locmatsiz, ngk, matsiz, mbsiz:     318     108     426     426
    iblk, mstart, mend, size(minm) (Mb):       1       1      20          1.30
    ---> rank, ikp, iq =        0       3       6
    locmatsiz, ngk, matsiz, mbsiz:     318     108     426     426
    iblk, mstart, mend, size(minm) (Mb):       1       1      20          1.30
    ---> rank, ikp, iq =        0       3       7
    locmatsiz, ngk, matsiz, mbsiz:     318     108     426     426
    iblk, mstart, mend, size(minm) (Mb):       1       1      20          1.30
    ---> rank, ikp, iq =        0       3       8
    locmatsiz, ngk, matsiz, mbsiz:     318     108     426     426
    iblk, mstart, mend, size(minm) (Mb):       1       1      20          1.30
 
 CPU time for vxnl (seconds)                :         5.65
 CPU time for vnlmat (seconds)              :         0.02
 CPU time for scf_cycle (seconds)           :         4.48
 
 Total energy                               :      -570.40664686
 _______________________________________________________________
 Fermi energy                               :         0.20987615
 Kinetic energy                             :       581.35511903
 Coulomb energy                             :     -1119.57241338
 Non-local exchange energy                  :        -2.40844273
 Exchange energy                            :       -31.09758388
 Correlation energy                         :        -1.09176863
 Sum of eigenvalues                         :      -316.81000262
 Effective potential energy                 :      -885.22180078
 Coulomb potential energy                   :      -844.41933950
 xc potential energy                        :       -40.80246128
 Hartree energy                             :       187.40554363
 Electron-nuclear energy                    :     -1219.23042677
 Nuclear-nuclear energy                     :       -87.74753025
 Madelung energy                            :      -697.36274363
 Core-electron kinetic energy               :       570.66518796
 
 DOS at Fermi energy (states/Ha/cell)       :         0.00000000
 
 Electron charges :
     core                                   :        20.00000000
     core leakage                           :         0.00453459
     valence                                :         8.00000000
     interstitial                           :         3.97212541
     charge in muffin-tin spheres :
                  atom     1    Si          :        12.01393730
                  atom     2    Si          :        12.01393730
     total charge in muffin-tins            :        24.02787459
     total charge                           :        28.00000000
 
 Estimated fundamental gap                  :         0.09083437
        valence-band maximum at    1      0.0000  0.0000  0.0000
     conduction-band minimum at    3      0.0000  0.5000  0.5000
 
 Charge distance                   (target) :  0.878062E-04 ( 0.100000E-04)
 
++++++++++++++++++++++++++++++++++++++++++++++++++++++++++++++++++++++++++++++++
+ Hybrids iteration number :    4                                               
++++++++++++++++++++++++++++++++++++++++++++++++++++++++++++++++++++++++++++++++
 
 Info(calc_vxnl):
    mdim, nblk, mblksiz:       20       1 1000000
    ---> rank, ikp, iq =        0       1       1
    locmatsiz, ngk, matsiz, mbsiz:     318     113     431     430
    iblk, mstart, mend, size(minm) (Mb):       1       1      20          1.31
    ---> rank, ikp, iq =        0       1       2
    locmatsiz, ngk, matsiz, mbsiz:     318     108     426     426
    iblk, mstart, mend, size(minm) (Mb):       1       1      20          1.30
    ---> rank, ikp, iq =        0       1       3
    locmatsiz, ngk, matsiz, mbsiz:     318     108     426     426
    iblk, mstart, mend, size(minm) (Mb):       1       1      20          1.30
    ---> rank, ikp, iq =        0       1       4
    locmatsiz, ngk, matsiz, mbsiz:     318     108     426     426
    iblk, mstart, mend, size(minm) (Mb):       1       1      20          1.30
    ---> rank, ikp, iq =        0       1       5
    locmatsiz, ngk, matsiz, mbsiz:     318     108     426     426
    iblk, mstart, mend, size(minm) (Mb):       1       1      20          1.30
    ---> rank, ikp, iq =        0       1       6
    locmatsiz, ngk, matsiz, mbsiz:     318     108     426     426
    iblk, mstart, mend, size(minm) (Mb):       1       1      20          1.30
    ---> rank, ikp, iq =        0       1       7
    locmatsiz, ngk, matsiz, mbsiz:     318     108     426     426
    iblk, mstart, mend, size(minm) (Mb):       1       1      20          1.30
    ---> rank, ikp, iq =        0       1       8
    locmatsiz, ngk, matsiz, mbsiz:     318     108     426     426
    iblk, mstart, mend, size(minm) (Mb):       1       1      20          1.30
    ---> rank, ikp, iq =        0       2       1
    locmatsiz, ngk, matsiz, mbsiz:     318     113     431     430
    iblk, mstart, mend, size(minm) (Mb):       1       1      20          1.31
    ---> rank, ikp, iq =        0       2       2
    locmatsiz, ngk, matsiz, mbsiz:     318     108     426     426
    iblk, mstart, mend, size(minm) (Mb):       1       1      20          1.30
    ---> rank, ikp, iq =        0       2       3
    locmatsiz, ngk, matsiz, mbsiz:     318     108     426     426
    iblk, mstart, mend, size(minm) (Mb):       1       1      20          1.30
    ---> rank, ikp, iq =        0       2       4
    locmatsiz, ngk, matsiz, mbsiz:     318     108     426     426
    iblk, mstart, mend, size(minm) (Mb):       1       1      20          1.30
    ---> rank, ikp, iq =        0       2       5
    locmatsiz, ngk, matsiz, mbsiz:     318     108     426     426
    iblk, mstart, mend, size(minm) (Mb):       1       1      20          1.30
    ---> rank, ikp, iq =        0       2       6
    locmatsiz, ngk, matsiz, mbsiz:     318     108     426     426
    iblk, mstart, mend, size(minm) (Mb):       1       1      20          1.30
    ---> rank, ikp, iq =        0       2       7
    locmatsiz, ngk, matsiz, mbsiz:     318     108     426     426
    iblk, mstart, mend, size(minm) (Mb):       1       1      20          1.30
    ---> rank, ikp, iq =        0       2       8
    locmatsiz, ngk, matsiz, mbsiz:     318     108     426     426
    iblk, mstart, mend, size(minm) (Mb):       1       1      20          1.30
    ---> rank, ikp, iq =        0       3       1
    locmatsiz, ngk, matsiz, mbsiz:     318     113     431     430
    iblk, mstart, mend, size(minm) (Mb):       1       1      20          1.31
    ---> rank, ikp, iq =        0       3       2
    locmatsiz, ngk, matsiz, mbsiz:     318     108     426     426
    iblk, mstart, mend, size(minm) (Mb):       1       1      20          1.30
    ---> rank, ikp, iq =        0       3       3
    locmatsiz, ngk, matsiz, mbsiz:     318     108     426     426
    iblk, mstart, mend, size(minm) (Mb):       1       1      20          1.30
    ---> rank, ikp, iq =        0       3       4
    locmatsiz, ngk, matsiz, mbsiz:     318     108     426     426
    iblk, mstart, mend, size(minm) (Mb):       1       1      20          1.30
    ---> rank, ikp, iq =        0       3       5
    locmatsiz, ngk, matsiz, mbsiz:     318     108     426     426
    iblk, mstart, mend, size(minm) (Mb):       1       1      20          1.30
    ---> rank, ikp, iq =        0       3       6
    locmatsiz, ngk, matsiz, mbsiz:     318     108     426     426
    iblk, mstart, mend, size(minm) (Mb):       1       1      20          1.30
    ---> rank, ikp, iq =        0       3       7
    locmatsiz, ngk, matsiz, mbsiz:     318     108     426     426
    iblk, mstart, mend, size(minm) (Mb):       1       1      20          1.30
    ---> rank, ikp, iq =        0       3       8
    locmatsiz, ngk, matsiz, mbsiz:     318     108     426     426
    iblk, mstart, mend, size(minm) (Mb):       1       1      20          1.30
 
 CPU time for vxnl (seconds)                :         5.82
 CPU time for vnlmat (seconds)              :         0.02
 CPU time for scf_cycle (seconds)           :         4.20
 
 Total energy                               :      -570.40658601
 _______________________________________________________________
 Fermi energy                               :         0.20989721
 Kinetic energy                             :       581.35455451
 Coulomb energy                             :     -1119.57188219
 Non-local exchange energy                  :        -2.40824293
 Exchange energy                            :       -31.09748768
 Correlation energy                         :        -1.09177065
 Sum of eigenvalues                         :      -316.80990549
 Effective potential energy                 :      -885.22200563
 Coulomb potential energy                   :      -844.41960212
 xc potential energy                        :       -40.80240351
 Hartree energy                             :       187.40474982
 Electron-nuclear energy                    :     -1219.22910176
 Nuclear-nuclear energy                     :       -87.74753025
 Madelung energy                            :      -697.36208113
 Core-electron kinetic energy               :       570.66518796
 
 DOS at Fermi energy (states/Ha/cell)       :         0.00000000
 
 Electron charges :
     core                                   :        20.00000000
     core leakage                           :         0.00453459
     valence                                :         8.00000000
     interstitial                           :         3.97228353
     charge in muffin-tin spheres :
                  atom     1    Si          :        12.01385823
                  atom     2    Si          :        12.01385823
     total charge in muffin-tins            :        24.02771647
     total charge                           :        28.00000000
 
 Estimated fundamental gap                  :         0.09080537
        valence-band maximum at    1      0.0000  0.0000  0.0000
     conduction-band minimum at    3      0.0000  0.5000  0.5000
 
 Charge distance                   (target) :  0.137357E-04 ( 0.100000E-04)
 
++++++++++++++++++++++++++++++++++++++++++++++++++++++++++++++++++++++++++++++++
+ Hybrids iteration number :    5                                               
++++++++++++++++++++++++++++++++++++++++++++++++++++++++++++++++++++++++++++++++
 
 Info(calc_vxnl):
    mdim, nblk, mblksiz:       20       1 1000000
    ---> rank, ikp, iq =        0       1       1
    locmatsiz, ngk, matsiz, mbsiz:     318     113     431     430
    iblk, mstart, mend, size(minm) (Mb):       1       1      20          1.31
    ---> rank, ikp, iq =        0       1       2
    locmatsiz, ngk, matsiz, mbsiz:     318     108     426     426
    iblk, mstart, mend, size(minm) (Mb):       1       1      20          1.30
    ---> rank, ikp, iq =        0       1       3
    locmatsiz, ngk, matsiz, mbsiz:     318     108     426     426
    iblk, mstart, mend, size(minm) (Mb):       1       1      20          1.30
    ---> rank, ikp, iq =        0       1       4
    locmatsiz, ngk, matsiz, mbsiz:     318     108     426     426
    iblk, mstart, mend, size(minm) (Mb):       1       1      20          1.30
    ---> rank, ikp, iq =        0       1       5
    locmatsiz, ngk, matsiz, mbsiz:     318     108     426     426
    iblk, mstart, mend, size(minm) (Mb):       1       1      20          1.30
    ---> rank, ikp, iq =        0       1       6
    locmatsiz, ngk, matsiz, mbsiz:     318     108     426     426
    iblk, mstart, mend, size(minm) (Mb):       1       1      20          1.30
    ---> rank, ikp, iq =        0       1       7
    locmatsiz, ngk, matsiz, mbsiz:     318     108     426     426
    iblk, mstart, mend, size(minm) (Mb):       1       1      20          1.30
    ---> rank, ikp, iq =        0       1       8
    locmatsiz, ngk, matsiz, mbsiz:     318     108     426     426
    iblk, mstart, mend, size(minm) (Mb):       1       1      20          1.30
    ---> rank, ikp, iq =        0       2       1
    locmatsiz, ngk, matsiz, mbsiz:     318     113     431     430
    iblk, mstart, mend, size(minm) (Mb):       1       1      20          1.31
    ---> rank, ikp, iq =        0       2       2
    locmatsiz, ngk, matsiz, mbsiz:     318     108     426     426
    iblk, mstart, mend, size(minm) (Mb):       1       1      20          1.30
    ---> rank, ikp, iq =        0       2       3
    locmatsiz, ngk, matsiz, mbsiz:     318     108     426     426
    iblk, mstart, mend, size(minm) (Mb):       1       1      20          1.30
    ---> rank, ikp, iq =        0       2       4
    locmatsiz, ngk, matsiz, mbsiz:     318     108     426     426
    iblk, mstart, mend, size(minm) (Mb):       1       1      20          1.30
    ---> rank, ikp, iq =        0       2       5
    locmatsiz, ngk, matsiz, mbsiz:     318     108     426     426
    iblk, mstart, mend, size(minm) (Mb):       1       1      20          1.30
    ---> rank, ikp, iq =        0       2       6
    locmatsiz, ngk, matsiz, mbsiz:     318     108     426     426
    iblk, mstart, mend, size(minm) (Mb):       1       1      20          1.30
    ---> rank, ikp, iq =        0       2       7
    locmatsiz, ngk, matsiz, mbsiz:     318     108     426     426
    iblk, mstart, mend, size(minm) (Mb):       1       1      20          1.30
    ---> rank, ikp, iq =        0       2       8
    locmatsiz, ngk, matsiz, mbsiz:     318     108     426     426
    iblk, mstart, mend, size(minm) (Mb):       1       1      20          1.30
    ---> rank, ikp, iq =        0       3       1
    locmatsiz, ngk, matsiz, mbsiz:     318     113     431     430
    iblk, mstart, mend, size(minm) (Mb):       1       1      20          1.31
    ---> rank, ikp, iq =        0       3       2
    locmatsiz, ngk, matsiz, mbsiz:     318     108     426     426
    iblk, mstart, mend, size(minm) (Mb):       1       1      20          1.30
    ---> rank, ikp, iq =        0       3       3
    locmatsiz, ngk, matsiz, mbsiz:     318     108     426     426
    iblk, mstart, mend, size(minm) (Mb):       1       1      20          1.30
    ---> rank, ikp, iq =        0       3       4
    locmatsiz, ngk, matsiz, mbsiz:     318     108     426     426
    iblk, mstart, mend, size(minm) (Mb):       1       1      20          1.30
    ---> rank, ikp, iq =        0       3       5
    locmatsiz, ngk, matsiz, mbsiz:     318     108     426     426
    iblk, mstart, mend, size(minm) (Mb):       1       1      20          1.30
    ---> rank, ikp, iq =        0       3       6
    locmatsiz, ngk, matsiz, mbsiz:     318     108     426     426
    iblk, mstart, mend, size(minm) (Mb):       1       1      20          1.30
    ---> rank, ikp, iq =        0       3       7
    locmatsiz, ngk, matsiz, mbsiz:     318     108     426     426
    iblk, mstart, mend, size(minm) (Mb):       1       1      20          1.30
    ---> rank, ikp, iq =        0       3       8
    locmatsiz, ngk, matsiz, mbsiz:     318     108     426     426
    iblk, mstart, mend, size(minm) (Mb):       1       1      20          1.30
 
 CPU time for vxnl (seconds)                :         5.38
 CPU time for vnlmat (seconds)              :         0.02
 CPU time for scf_cycle (seconds)           :         3.51
 
 Total energy                               :      -570.40657698
 _______________________________________________________________
 Fermi energy                               :         0.20990286
 Kinetic energy                             :       581.35443083
 Coulomb energy                             :     -1119.57176655
 Non-local exchange energy                  :        -2.40821352
 Exchange energy                            :       -31.09747015
 Correlation energy                         :        -1.09177111
 Sum of eigenvalues                         :      -316.80988757
 Effective potential energy                 :      -885.22205015
 Coulomb potential energy                   :      -844.41965931
 xc potential energy                        :       -40.80239084
 Hartree energy                             :       187.40457699
 Electron-nuclear energy                    :     -1219.22881330
 Nuclear-nuclear energy                     :       -87.74753025
 Madelung energy                            :      -697.36193689
 Core-electron kinetic energy               :       570.66518796
 
 DOS at Fermi energy (states/Ha/cell)       :         0.00000000
 
 Electron charges :
     core                                   :        20.00000000
     core leakage                           :         0.00453459
     valence                                :         8.00000000
     interstitial                           :         3.97231775
     charge in muffin-tin spheres :
                  atom     1    Si          :        12.01384112
                  atom     2    Si          :        12.01384112
     total charge in muffin-tins            :        24.02768225
     total charge                           :        28.00000000
 
 Estimated fundamental gap                  :         0.09079435
        valence-band maximum at    1      0.0000  0.0000  0.0000
     conduction-band minimum at    3      0.0000  0.5000  0.5000
 
 Charge distance                   (target) :  0.306362E-05 ( 0.100000E-04)
 
++++++++++++++++++++++++++++++++++++++++++++++++++++++++++++++++++++++++++++++++
Convergence target is reached                                                   
++++++++++++++++++++++++++++++++++++++++++++++++++++++++++++++++++++++++++++++++
 
++++++++++++++++++++++++++++++++++++++++++++++++++++++++++++++++++++++++++++++++
+ Hybrids module stopped                                                        
++++++++++++++++++++++++++++++++++++++++++++++++++++++++++++++++++++++++++++++++
 
--------------------------------------------------------------------------------
Timings (seconds)                                                               
--------------------------------------------------------------------------------
 initialisation                        :         0.52
            - init0                    :         0.22
            - init1                    :         0.08
            - rhoinit                  :         0.01
            - potential initialisation :         0.17
            - others                   :         0.03
 Hamiltonian and overlap matrix set up :         0.72
            - hmlaan                   :         0.37
            - hmlalon                  :         0.02
            - hmllolon                 :         0.00
            - olpaan                   :         0.17
            - olpalon                  :         0.00
            - olplolon                 :         0.00
            - hmlistln                 :         0.02
            - olpistln                 :         0.09
 first-variational secular equation    :         0.45
 charge density calculation            :         1.07
 potential calculation                 :        17.69
 muffin-tin manipulations              :         4.75
 APW matching                          :         0.47
 disk reads/writes                     :         0.61
 mixing efforts                        :         0.03
 sum                                   :        26.31
 Dirac eqn solver                      :         0.29
 Rel. Schroedinger eqn solver          :         0.24
 Total time spent in radial solvers    :         0.53
 
 Total time spent (seconds)            :        65.35
 
================================================================================
EXCITING NITROGEN-14 stopped                                                    
================================================================================
