================================================================================
| EXCITING OXYGEN started for task xsgeneigvec (301)                           =
| version hash id: db1af6655483acc0d004c84381c13b590f8da658                    =
|                                                                              =
| Date (DD-MM-YYYY) : 06-04-2022                                               =
================================================================================
================================================================================
One-shot GS runs for BSE calculations
================================================================================
++++++++++++++++++++++++++++++++++++++++++++++++++++++++++++++++++++++++++++++++
One-shot GS runs for k+qmt/2 grids
++++++++++++++++++++++++++++++++++++++++++++++++++++++++++++++++++++++++++++++++
Info(xsgeneigvec): Generating eigenvectors for Q-point      1
--------------------------------------------------------------------------------
Info(xsgeneigvec): Generation of eigenvectors finished
 
Info(xsfinit): task Nr.     301 stopped gracefully
 
 Timings: 
     Date (DD-MM-YYYY)      : 06-04-2022
     Time (hh:mm:ss)        : 12:35:15
     CPU time               : 2.21 sec; 0.00 hrs; ( 0 d, 00 h, 00 m, 02 s )
     wall time              : 1.10 sec; 0.00 hrs; ( 0 d, 00 h, 00 m, 01 s )
     CPU load               : 199.84 %
     CPU time  (cumulative) : 16.86 sec; 0.00 hrs; ( 0 d, 00 h, 00 m, 17 s )
     wall time (cumulative) : 1.10 sec; 0.00 hrs; ( 0 d, 00 h, 00 m, 01 s )
     CPU load  (cumulative) : 199.84 %
 
================================================================================
= EXCITING OXYGEN stopped for task    301                                      =
================================================================================
 
 
================================================================================
| EXCITING OXYGEN started for task writepmatxs (320)                           =
| Date (DD-MM-YYYY) : 06-04-2022                                               =
================================================================================
Info(writepmatxs): Momentum matrix elements finished
Info(xsfinit): task Nr.     320 stopped gracefully
 
 Timings: 
     Date (DD-MM-YYYY)      : 06-04-2022
     Time (hh:mm:ss)        : 12:35:17
     CPU time               : 3.53 sec; 0.00 hrs; ( 0 d, 00 h, 00 m, 04 s )
     wall time              : 2.10 sec; 0.00 hrs; ( 0 d, 00 h, 00 m, 02 s )
     CPU load               : 168.25 %
     CPU time  (cumulative) : 20.39 sec; 0.01 hrs; ( 0 d, 00 h, 00 m, 20 s )
     wall time (cumulative) : 3.21 sec; 0.00 hrs; ( 0 d, 00 h, 00 m, 03 s )
     CPU load  (cumulative) : 168.25 %
 
================================================================================
= EXCITING OXYGEN stopped for task    320                                      =
================================================================================
 
 
================================================================================
| EXCITING OXYGEN started for task scrgeneigvec (401)                          =
| Date (DD-MM-YYYY) : 06-04-2022                                               =
================================================================================
 
Info(xsinit): mapping screening-specific parameters
 
================================================================================
One-shot GS runs for BSE calculations
================================================================================
++++++++++++++++++++++++++++++++++++++++++++++++++++++++++++++++++++++++++++++++
One-shot GS runs for k+qmt/2 grids
++++++++++++++++++++++++++++++++++++++++++++++++++++++++++++++++++++++++++++++++
Info(xsgeneigvec): Generating eigenvectors for Q-point      1
Using screening GS parameters.
--------------------------------------------------------------------------------
Info(xsgeneigvec): Generation of eigenvectors finished
 
Info(xsfinit): task Nr.     401 stopped gracefully
 
 Timings: 
     Date (DD-MM-YYYY)      : 06-04-2022
     Time (hh:mm:ss)        : 12:35:18
     CPU time               : 1.99 sec; 0.00 hrs; ( 0 d, 00 h, 00 m, 02 s )
     wall time              : 0.99 sec; 0.00 hrs; ( 0 d, 00 h, 00 m, 01 s )
     CPU load               : 200.25 %
     CPU time  (cumulative) : 22.39 sec; 0.01 hrs; ( 0 d, 00 h, 00 m, 22 s )
     wall time (cumulative) : 4.20 sec; 0.00 hrs; ( 0 d, 00 h, 00 m, 04 s )
     CPU load  (cumulative) : 200.25 %
 
================================================================================
= EXCITING OXYGEN stopped for task    401                                      =
================================================================================
 
 
================================================================================
| EXCITING OXYGEN started for task scrwritepmat (420)                          =
| Date (DD-MM-YYYY) : 06-04-2022                                               =
================================================================================
 
Info(xsinit): mapping screening-specific parameters
 
Info(writepmatxs): Momentum matrix elements finished
Info(scrwritepmat): Momentum matrix elements for screening finished
Info(xsfinit): task Nr.     420 stopped gracefully
 
 Timings: 
     Date (DD-MM-YYYY)      : 06-04-2022
     Time (hh:mm:ss)        : 12:35:19
     CPU time               : 1.84 sec; 0.00 hrs; ( 0 d, 00 h, 00 m, 02 s )
     wall time              : 1.25 sec; 0.00 hrs; ( 0 d, 00 h, 00 m, 01 s )
     CPU load               : 146.38 %
     CPU time  (cumulative) : 24.22 sec; 0.01 hrs; ( 0 d, 00 h, 00 m, 24 s )
     wall time (cumulative) : 5.46 sec; 0.00 hrs; ( 0 d, 00 h, 00 m, 05 s )
     CPU load  (cumulative) : 146.38 %
 
================================================================================
= EXCITING OXYGEN stopped for task    420                                      =
================================================================================
 
 
================================================================================
| EXCITING OXYGEN started for task screen (430)                                =
| Date (DD-MM-YYYY) : 06-04-2022                                               =
================================================================================
 
Info(xsinit): mapping screening-specific parameters
 
++++++++++++++++++++++++++++++++++++++++++++++++++++++++++++++++++++++++++++++++
Info(screenlauncher): Calculating screening for unshifted q-grid.
Info(screenlauncher): Number of q points:       3
++++++++++++++++++++++++++++++++++++++++++++++++++++++++++++++++++++++++++++++++
 
Info(screenlauncher): lowest (partially)  unoccupied state:      5
Info(screenlauncher): highest (partially) occupied state  :      4
Info(screenlauncher): number of occupied states considered:    4
Info(screenlauncher): number of unoccupied states considered:  101
--------------------------------------------------------------------------------
 
Info(screenlauncher): Starting loop over q-points
 
++++++++++++++++++++++++++++++++++++++++++++++++++++++++++++++++++++++++++++++++
Info(screenlauncher): Screening for unshifted q-grid finished
++++++++++++++++++++++++++++++++++++++++++++++++++++++++++++++++++++++++++++++++
 
Info(screenlauncher): Screening finished
Info(xsfinit): task Nr.     430 stopped gracefully
 
 Timings: 
     Date (DD-MM-YYYY)      : 06-04-2022
     Time (hh:mm:ss)        : 12:35:22
     CPU time               : 5.71 sec; 0.00 hrs; ( 0 d, 00 h, 00 m, 06 s )
     wall time              : 2.86 sec; 0.00 hrs; ( 0 d, 00 h, 00 m, 03 s )
     CPU load               : 199.44 %
     CPU time  (cumulative) : 29.93 sec; 0.01 hrs; ( 0 d, 00 h, 00 m, 30 s )
     wall time (cumulative) : 8.32 sec; 0.00 hrs; ( 0 d, 00 h, 00 m, 08 s )
     CPU load  (cumulative) : 199.44 %
 
================================================================================
= EXCITING OXYGEN stopped for task    430                                      =
================================================================================
 
 
================================================================================
| EXCITING OXYGEN started for task scrcoulint (440)                            =
| Date (DD-MM-YYYY) : 06-04-2022                                               =
================================================================================
 
Info(xsinit): mapping BSE-specific parameters
 
++++++++++++++++++++++++++++++++++++++++++++++++++++++++++++++++++++++++++++++++
Info(scrcoulintlauncher): Setting up screened Coulomb interaction matrix W.
Info(scrcoulintlauncher): Using momentum transfer vectors from list :   1 to  1
++++++++++++++++++++++++++++++++++++++++++++++++++++++++++++++++++++++++++++++++
 
++++++++++++++++++++++++++++++++++++++++++++++++++++++++++++++++++++++++++++++++
Info(scrcoulintlauncher): Calculating screened Coulomb interaction matrix W
Info(scrcoulintlauncher): Momentum transfer list index: iqmt=  1
Info(scrcoulintlauncher): Momentum transfer: vqmtl=   0.000   0.000   0.000
++++++++++++++++++++++++++++++++++++++++++++++++++++++++++++++++++++++++++++++++
 
Info(scrcoulintlauncher): Calculating RR block of W
 
--------------------------------------------------------------------------------
Info(scrcoulint): Inspecting occupations...
Info(setranges_modxs): Determining k+qmt/2 grid
Info(setranges_modxs): Determining k-qmt/2 grid
Info(setranges_modxs): Number of non-reduced k-points:        8
Info(setranges_modxs): Number of states considered:       35
Info(setranges_modxs): Number of (partially) occupied states:        2
Info(setranges_modxs): Highest (partially) occupied states:        4
Info(setranges_modxs): Number of (partially) unoccupied states:       31
Info(setranges_modxs): Lowest (partially) unoccupied states:        5
--------------------------------------------------------------------------------
Info(scrcoulint): Selecting transitions...
Info(select_transitions): Inspecting transitions in the  band interval:
  lowest occupied state:   1
  highest occupied state:   2
  lowest unoccupied state:   5
  highest unoccupied state:  19
  Opening gap with a scissor of:      0.000/H      0.000/eV
Info(select_transitions): Number of participating transitions:     240
--------------------------------------------------------------------------------
Info(scrcoulint): Size of file SCCLI will be about     0.000483 GB
Info(scrcoulint): Using q-grid
Info(scrcoulint): Number of reduced q-points:      3
Info(scrcoulint): Number of non-reduced q-points:      8
 
Info(scrcoulint): Calculating W(G1,G2,qr) fourier coefficients
Info(scrcoulint): Calculating W matrix elements
++++++++++++++++++++++++++++++++++++++++++++++++++++++++++++++++++++++++++++++++
Info(scrcoulintlauncher): Screened coulomb interaction finished for iqmt=   1
++++++++++++++++++++++++++++++++++++++++++++++++++++++++++++++++++++++++++++++++
Info(xsfinit): task Nr.     440 stopped gracefully
 
 Timings: 
     Date (DD-MM-YYYY)      : 06-04-2022
     Time (hh:mm:ss)        : 12:35:24
     CPU time               : 5.14 sec; 0.00 hrs; ( 0 d, 00 h, 00 m, 05 s )
     wall time              : 2.57 sec; 0.00 hrs; ( 0 d, 00 h, 00 m, 03 s )
     CPU load               : 199.92 %
     CPU time  (cumulative) : 35.07 sec; 0.01 hrs; ( 0 d, 00 h, 00 m, 35 s )
     wall time (cumulative) : 10.89 sec; 0.00 hrs; ( 0 d, 00 h, 00 m, 11 s )
     CPU load  (cumulative) : 199.92 %
 
================================================================================
= EXCITING OXYGEN stopped for task    440                                      =
================================================================================
 
 
================================================================================
| EXCITING OXYGEN started for task exccoulint (441)                            =
| Date (DD-MM-YYYY) : 06-04-2022                                               =
================================================================================
 
Info(xsinit): mapping BSE-specific parameters
 
++++++++++++++++++++++++++++++++++++++++++++++++++++++++++++++++++++++++++++++++
Info(exccoulintlauncher): Setting up exchange interaction matrix V.
Info(exccoulintlauncher): Using momentum transfer vectors from list :   1 to  1
++++++++++++++++++++++++++++++++++++++++++++++++++++++++++++++++++++++++++++++++
 
++++++++++++++++++++++++++++++++++++++++++++++++++++++++++++++++++++++++++++++++
Info(exccoulintlauncher):Calculating exchange interaction matrix V
Info(exccoulintlauncher): Momentum transfer list index: iqmt=  1
Info(exccoulintlauncher): Momentum transfer: vqmtl=   0.000   0.000   0.000
++++++++++++++++++++++++++++++++++++++++++++++++++++++++++++++++++++++++++++++++
 
Info(exccoulintlauncher): Calculating RR block of V
 
--------------------------------------------------------------------------------
Info(exccoulint): Inspecting occupations...
Info(setranges_modxs): Determining k+qmt/2 grid
Info(setranges_modxs): Determining k-qmt/2 grid
Info(setranges_modxs): Number of non-reduced k-points:        8
Info(setranges_modxs): Number of states considered:       35
Info(setranges_modxs): Number of (partially) occupied states:        2
Info(setranges_modxs): Highest (partially) occupied states:        4
Info(setranges_modxs): Number of (partially) unoccupied states:       31
Info(setranges_modxs): Lowest (partially) unoccupied states:        5
--------------------------------------------------------------------------------
Info(exccoulint): Selecting transitions...
Info(select_transitions): Inspecting transitions in the  band interval:
  lowest occupied state:   1
  highest occupied state:   2
  lowest unoccupied state:   5
  highest unoccupied state:  19
  Opening gap with a scissor of:      0.000/H      0.000/eV
Info(select_transitions): Number of participating transitions:     240
--------------------------------------------------------------------------------
Info(exccoulint): Size of file EXCLI will be about     0.000483 GB
 
Info(exccoulint): Generating plane wave matrix elements for momentum transfer iqmt=   1
  Timing (in seconds)	   :      10.296
 
Info(exccoulint): Generating V matrix elements
Info(exccoulint): Zeroing Coulomb potential at G+qmt index:  1
++++++++++++++++++++++++++++++++++++++++++++++++++++++++++++++++++++++++++++++++
Info(exccoulintlauncher): Exchange interaction finished for iqmt=   1
++++++++++++++++++++++++++++++++++++++++++++++++++++++++++++++++++++++++++++++++
Info(xsfinit): task Nr.     441 stopped gracefully
 
 Timings: 
     Date (DD-MM-YYYY)      : 06-04-2022
     Time (hh:mm:ss)        : 12:35:35
     CPU time               : 21.36 sec; 0.01 hrs; ( 0 d, 00 h, 00 m, 21 s )
     wall time              : 10.68 sec; 0.00 hrs; ( 0 d, 00 h, 00 m, 11 s )
     CPU load               : 199.97 %
     CPU time  (cumulative) : 56.43 sec; 0.02 hrs; ( 0 d, 00 h, 00 m, 56 s )
     wall time (cumulative) : 21.57 sec; 0.01 hrs; ( 0 d, 00 h, 00 m, 22 s )
     CPU load  (cumulative) : 199.97 %
 
================================================================================
= EXCITING OXYGEN stopped for task    441                                      =
================================================================================
 
 
================================================================================
| EXCITING OXYGEN started for task bse (445)                                   =
| Date (DD-MM-YYYY) : 06-04-2022                                               =
================================================================================
 
Info(xsinit): mapping BSE-specific parameters
 
Info(bselauncher): Init time:    0.212580
++++++++++++++++++++++++++++++++++++++++++++++++++++++++++++++++++++++++++++++++
Info(bselauncher): Setting up and diagonalizing BSE Hamiltonian.
Info(bselauncher): Using momentum transfer vectors from list :   1 to  1
++++++++++++++++++++++++++++++++++++++++++++++++++++++++++++++++++++++++++++++++
Info(bselauncher): Serial execution
++++++++++++++++++++++++++++++++++++++++++++++++++++++++++++++++++++++++++++++++
--------------------------------------------------------------------------------
Info(bselauncher): Momentum transfer list index: iqmt=  1
Info(bselauncher): Momentum transfer: vqmtl=   0.000   0.000   0.000
--------------------------------------------------------------------------------
--------------------------------------------------------------------------------
Info(bse): Inspecting occupations...
Info(setranges_modxs): Determining k+qmt/2 grid
Info(setranges_modxs): Determining k-qmt/2 grid
Info(setranges_modxs): Number of non-reduced k-points:        8
Info(setranges_modxs): Number of states considered:       35
Info(setranges_modxs): Number of (partially) occupied states:        2
Info(setranges_modxs): Highest (partially) occupied states:        4
Info(setranges_modxs): Number of (partially) unoccupied states:       31
Info(setranges_modxs): Lowest (partially) unoccupied states:        5
Info(select_transitions): Inspecting transitions in the  band interval:
  lowest occupied state:   1
  highest occupied state:   2
  lowest unoccupied state:   5
  highest unoccupied state:  19
  Opening gap with a scissor of:      0.000/H      0.000/eV
Info(select_transitions): Number of participating transitions:     240
--------------------------------------------------------------------------------
Info(bse): Selecting transitions...
--------------------------------------------------------------------------------
 
Info(bse):bsegap (eV):   378.4792756096870789
Info(bse): Assembling BSE matrix
  RR/RA blocks of global BSE-Hamiltonian:
  Size of the Hamiltonian:     240
  Number of k-points:       8
  Distributing matrix to   1 processes
  Local matrix shape    240 x   240
Info(bse): max local RAM needed for BSE matrices ~     0.000858 GB
 
--------------------------------------------------------------------------------
Info(setup_bse_block): Setting up RR part of hamiltonian
Info(setup_bse_block): Singlet spin state
 Hamiltonian constructed.
All processes build their local matrix
Info(bse): Diagonalizing RR Hamiltonian (TDA)
Info(bse): Invoking Lapack routine ZHEEVR
       240 eigen solutions found in the interval:
         i1=       1 i2=     240
 
--------------------------------------------------------------------------------
Info(makeoscistr_dist): Making oscillator strengths (distributed).
Info(makeoscistr_dist): iqmt=   1
Info(makeoscistr_dist): Qmt=       0.000000       0.000000       0.000000
Info(makeoscistr_dist): Using zero momentum transfer formalismus.
Info(makeoscistr_dist): Making oscillator strengths using dipole operator matrix elements.
  Building Dipole matrix.
  Building distributed resonant oscillator strengths.
 
--------------------------------------------------------------------------------
Info(bse): Writing excition energies and oscillator strengths to text file.
Info(makespectrum_dist): Making spectrum using formula for coupling with time reversed AR basis.
Info(makespectrum_dist): Using formalism for vanishing momentum transfer.
Info(finalizespectrum): Finalizing spectrum.
Info(finalizespectrum): Using modified density-response function to build spectrum.
Info(writederived): Writing quantities derived from the macroscopic dielectric function.
  Derived quantities written.
--------------------------------------------------------------------------------
Info(bselauncher): Spectrum finished for iqmt=  1
--------------------------------------------------------------------------------
Info(xsfinit): task Nr.     445 stopped gracefully
 
 Timings: 
     Date (DD-MM-YYYY)      : 06-04-2022
     Time (hh:mm:ss)        : 12:35:35
     CPU time               : 0.52 sec; 0.00 hrs; ( 0 d, 00 h, 00 m, 01 s )
     wall time              : 0.27 sec; 0.00 hrs; ( 0 d, 00 h, 00 m, 00 s )
     CPU load               : 194.07 %
     CPU time  (cumulative) : 56.95 sec; 0.02 hrs; ( 0 d, 00 h, 00 m, 57 s )
     wall time (cumulative) : 21.84 sec; 0.01 hrs; ( 0 d, 00 h, 00 m, 22 s )
     CPU load  (cumulative) : 194.07 %
 
================================================================================
= EXCITING OXYGEN stopped for task    445                                      =
================================================================================
 
 
