================================================================================
| EXCITING OXYGEN started                                                      =
| version hash id: 9e3b1527d624e608d8bd25cdd50eda6f0c641fe3                    =
|                                                                              =
|                                                                              =
| Date (DD-MM-YYYY) : 30-03-2021                                               =
| Time (hh:mm:ss)   : 18:42:26                                                 =
|                                                                              =
| All units are atomic (Hartree, Bohr, etc.)                                   =
================================================================================
 
********************************************************************************
* Ground-state run starting from atomic densities                              *
********************************************************************************
 
++++++++++++++++++++++++++++++++++++++++++++++++++++++++++++++++++++++++++++++++
+ Starting initialization                                                      +
++++++++++++++++++++++++++++++++++++++++++++++++++++++++++++++++++++++++++++++++
 
 Lattice vectors (cartesian) :
      5.1300000000      5.1300000000      0.0000000000
      5.1300000000      0.0000000000      5.1300000000
      0.0000000000      5.1300000000      5.1300000000
 
 Reciprocal lattice vectors (cartesian) :
      0.6123962288      0.6123962288     -0.6123962288
      0.6123962288     -0.6123962288      0.6123962288
     -0.6123962288      0.6123962288      0.6123962288
 
 Unit cell volume                           :     270.0113940000
 Brillouin zone volume                      :       0.9186657265
 
 Species :    1 (Si)
     parameters loaded from                 :    Si.xml
     name                                   :    silicon
     nuclear charge                         :     -14.00000000
     electronic charge                      :      14.00000000
     atomic mass                            :   51196.73454000
     muffin-tin radius                      :       2.10000000
     # of radial points in muffin-tin       :     300
 
     atomic positions (lattice) :
       1 :   0.00000000  0.00000000  0.00000000
       2 :   0.25000000  0.25000000  0.25000000
 
 Total number of atoms per unit cell        :       2
 
 Spin treatment                             :    spin-unpolarised
 
 Number of Bravais lattice symmetries       :      48
 Number of crystal symmetries               :      48
 
 k-point grid                               :       2    2    2
 Total number of k-points                   :       3
 k-point set is reduced with crystal symmetries
 
 R^MT_min * |G+k|_max (rgkmax)              :       6.00000000
 Species with R^MT_min                      :       1 (Si)
 Maximum |G+k| for APW functions            :       2.85714286
 Maximum |G| for potential and density      :      12.00000000
 Polynomial order for pseudochg. density    :       9
 
 G-vector grid sizes                        :      30    30    30
 Total number of G-vectors                  :    7799
 
 Maximum angular momentum used for
     APW functions                          :       8
     computing H and O matrix elements      :       8
     potential and density                  :       8
     inner part of muffin-tin               :       2
 
 Total nuclear charge                       :     -28.00000000
 Total electronic charge                    :      28.00000000
 Total core charge                          :      20.00000000
 Total valence charge                       :       8.00000000
 
 Effective Wigner radius, r_s               :       1.32041916
 
 Number of empty states                     :       5
 Total number of valence states             :      10
 
 Maximum Hamiltonian size                   :     121
 Maximum number of plane-waves              :     113
 Total number of local-orbitals             :       8
 
 Exchange-correlation type                  :     408
     HSE, Jochen Heyd; Gustavo E. Scuseria; Matthias Ernzerhof, J. Chem. Phys. 118, 8207 (2003)
     Hybrid functional 
     Exchange type                          :       HF
     Mixing coefficient for exact exchange  :       0.25000000
     Screening parameter (omega)            :       0.11000000
 
 Smearing scheme                            :    Extended linear tetrahedron method
 
 Using multisecant Broyden potential mixing
 
++++++++++++++++++++++++++++++++++++++++++++++++++++++++++++++++++++++++++++++++
+ Ending initialization                                                        +
++++++++++++++++++++++++++++++++++++++++++++++++++++++++++++++++++++++++++++++++
 
********************************************************************************
* Hybrids module started                                                        
********************************************************************************
 
 Performing PBE self-consistent run
 Storing STATE_PBE.OUT
 
++++++++++++++++++++++++++++++++++++++++++++++++++++++++++++++++++++++++++++++++
+ Hybrids iteration number :    1                                               
++++++++++++++++++++++++++++++++++++++++++++++++++++++++++++++++++++++++++++++++
 
 Info(calc_vxnl):
    mdim, nblk, mblksiz:       20       1 1000000
    ---> rank, ikp, iq =        0       1       1
    locmatsiz, ngk, matsiz, mbsiz:     318     113     431     430
    iblk, mstart, mend, size(minm) (Mb):       1       1      20          1.31
    ---> rank, ikp, iq =        0       1       2
    locmatsiz, ngk, matsiz, mbsiz:     318     108     426     426
    iblk, mstart, mend, size(minm) (Mb):       1       1      20          1.30
    ---> rank, ikp, iq =        0       1       3
    locmatsiz, ngk, matsiz, mbsiz:     318     108     426     426
    iblk, mstart, mend, size(minm) (Mb):       1       1      20          1.30
    ---> rank, ikp, iq =        0       1       4
    locmatsiz, ngk, matsiz, mbsiz:     318     108     426     426
    iblk, mstart, mend, size(minm) (Mb):       1       1      20          1.30
    ---> rank, ikp, iq =        0       1       5
    locmatsiz, ngk, matsiz, mbsiz:     318     108     426     426
    iblk, mstart, mend, size(minm) (Mb):       1       1      20          1.30
    ---> rank, ikp, iq =        0       1       6
    locmatsiz, ngk, matsiz, mbsiz:     318     108     426     426
    iblk, mstart, mend, size(minm) (Mb):       1       1      20          1.30
    ---> rank, ikp, iq =        0       1       7
    locmatsiz, ngk, matsiz, mbsiz:     318     108     426     426
    iblk, mstart, mend, size(minm) (Mb):       1       1      20          1.30
    ---> rank, ikp, iq =        0       1       8
    locmatsiz, ngk, matsiz, mbsiz:     318     108     426     426
    iblk, mstart, mend, size(minm) (Mb):       1       1      20          1.30
    ---> rank, ikp, iq =        0       2       1
    locmatsiz, ngk, matsiz, mbsiz:     318     113     431     430
    iblk, mstart, mend, size(minm) (Mb):       1       1      20          1.31
    ---> rank, ikp, iq =        0       2       2
    locmatsiz, ngk, matsiz, mbsiz:     318     108     426     426
    iblk, mstart, mend, size(minm) (Mb):       1       1      20          1.30
    ---> rank, ikp, iq =        0       2       3
    locmatsiz, ngk, matsiz, mbsiz:     318     108     426     426
    iblk, mstart, mend, size(minm) (Mb):       1       1      20          1.30
    ---> rank, ikp, iq =        0       2       4
    locmatsiz, ngk, matsiz, mbsiz:     318     108     426     426
    iblk, mstart, mend, size(minm) (Mb):       1       1      20          1.30
    ---> rank, ikp, iq =        0       2       5
    locmatsiz, ngk, matsiz, mbsiz:     318     108     426     426
    iblk, mstart, mend, size(minm) (Mb):       1       1      20          1.30
    ---> rank, ikp, iq =        0       2       6
    locmatsiz, ngk, matsiz, mbsiz:     318     108     426     426
    iblk, mstart, mend, size(minm) (Mb):       1       1      20          1.30
    ---> rank, ikp, iq =        0       2       7
    locmatsiz, ngk, matsiz, mbsiz:     318     108     426     426
    iblk, mstart, mend, size(minm) (Mb):       1       1      20          1.30
    ---> rank, ikp, iq =        0       2       8
    locmatsiz, ngk, matsiz, mbsiz:     318     108     426     426
    iblk, mstart, mend, size(minm) (Mb):       1       1      20          1.30
    ---> rank, ikp, iq =        0       3       1
    locmatsiz, ngk, matsiz, mbsiz:     318     113     431     430
    iblk, mstart, mend, size(minm) (Mb):       1       1      20          1.31
    ---> rank, ikp, iq =        0       3       2
    locmatsiz, ngk, matsiz, mbsiz:     318     108     426     426
    iblk, mstart, mend, size(minm) (Mb):       1       1      20          1.30
    ---> rank, ikp, iq =        0       3       3
    locmatsiz, ngk, matsiz, mbsiz:     318     108     426     426
    iblk, mstart, mend, size(minm) (Mb):       1       1      20          1.30
    ---> rank, ikp, iq =        0       3       4
    locmatsiz, ngk, matsiz, mbsiz:     318     108     426     426
    iblk, mstart, mend, size(minm) (Mb):       1       1      20          1.30
    ---> rank, ikp, iq =        0       3       5
    locmatsiz, ngk, matsiz, mbsiz:     318     108     426     426
    iblk, mstart, mend, size(minm) (Mb):       1       1      20          1.30
    ---> rank, ikp, iq =        0       3       6
    locmatsiz, ngk, matsiz, mbsiz:     318     108     426     426
    iblk, mstart, mend, size(minm) (Mb):       1       1      20          1.30
    ---> rank, ikp, iq =        0       3       7
    locmatsiz, ngk, matsiz, mbsiz:     318     108     426     426
    iblk, mstart, mend, size(minm) (Mb):       1       1      20          1.30
    ---> rank, ikp, iq =        0       3       8
    locmatsiz, ngk, matsiz, mbsiz:     318     108     426     426
    iblk, mstart, mend, size(minm) (Mb):       1       1      20          1.30
 
 CPU time for vxnl (seconds)                :         4.90
 CPU time for vnlmat (seconds)              :         0.00
 CPU time for scf_cycle (seconds)           :         5.85
 
 Total energy                               :      -570.73465641
 _______________________________________________________________
 Fermi energy                               :         0.20580190
 Kinetic energy                             :       581.39591517
 Coulomb energy                             :     -1119.61001094
 Non-local exchange energy                  :        -2.05540843
 Exchange energy                            :       -31.42900948
 Correlation energy                         :        -1.09155115
 Sum of eigenvalues                         :      -316.74870052
 Effective potential energy                 :      -885.63723098
 Coulomb potential energy                   :      -844.39764331
 xc potential energy                        :       -41.23958767
 Hartree energy                             :       187.46483739
 Electron-nuclear energy                    :     -1219.32731809
 Nuclear-nuclear energy                     :       -87.74753025
 Madelung energy                            :      -697.41118929
 Core-electron kinetic energy               :       570.66518796
 
 DOS at Fermi energy (states/Ha/cell)       :         0.00000000
 
 Electron charges :
     core                                   :        20.00000000
     core leakage                           :         0.00453459
     valence                                :         8.00000000
     interstitial                           :         3.96018986
     charge in muffin-tin spheres :
                  atom     1    Si          :        12.01990507
                  atom     2    Si          :        12.01990507
     total charge in muffin-tins            :        24.03981014
     total charge                           :        28.00000000
 
 Estimated fundamental gap                  :         0.06710512
        valence-band maximum at    1      0.0000  0.0000  0.0000
     conduction-band minimum at    3      0.0000  0.5000  0.5000
 
 Charge distance                   (target) :  0.815173E-02 ( 0.100000E-04)
 
++++++++++++++++++++++++++++++++++++++++++++++++++++++++++++++++++++++++++++++++
+ Hybrids iteration number :    2                                               
++++++++++++++++++++++++++++++++++++++++++++++++++++++++++++++++++++++++++++++++
 
 Info(calc_vxnl):
    mdim, nblk, mblksiz:       20       1 1000000
    ---> rank, ikp, iq =        0       1       1
    locmatsiz, ngk, matsiz, mbsiz:     318     113     431     430
    iblk, mstart, mend, size(minm) (Mb):       1       1      20          1.31
    ---> rank, ikp, iq =        0       1       2
    locmatsiz, ngk, matsiz, mbsiz:     318     108     426     426
    iblk, mstart, mend, size(minm) (Mb):       1       1      20          1.30
    ---> rank, ikp, iq =        0       1       3
    locmatsiz, ngk, matsiz, mbsiz:     318     108     426     426
    iblk, mstart, mend, size(minm) (Mb):       1       1      20          1.30
    ---> rank, ikp, iq =        0       1       4
    locmatsiz, ngk, matsiz, mbsiz:     318     108     426     426
    iblk, mstart, mend, size(minm) (Mb):       1       1      20          1.30
    ---> rank, ikp, iq =        0       1       5
    locmatsiz, ngk, matsiz, mbsiz:     318     108     426     426
    iblk, mstart, mend, size(minm) (Mb):       1       1      20          1.30
    ---> rank, ikp, iq =        0       1       6
    locmatsiz, ngk, matsiz, mbsiz:     318     108     426     426
    iblk, mstart, mend, size(minm) (Mb):       1       1      20          1.30
    ---> rank, ikp, iq =        0       1       7
    locmatsiz, ngk, matsiz, mbsiz:     318     108     426     426
    iblk, mstart, mend, size(minm) (Mb):       1       1      20          1.30
    ---> rank, ikp, iq =        0       1       8
    locmatsiz, ngk, matsiz, mbsiz:     318     108     426     426
    iblk, mstart, mend, size(minm) (Mb):       1       1      20          1.30
    ---> rank, ikp, iq =        0       2       1
    locmatsiz, ngk, matsiz, mbsiz:     318     113     431     430
    iblk, mstart, mend, size(minm) (Mb):       1       1      20          1.31
    ---> rank, ikp, iq =        0       2       2
    locmatsiz, ngk, matsiz, mbsiz:     318     108     426     426
    iblk, mstart, mend, size(minm) (Mb):       1       1      20          1.30
    ---> rank, ikp, iq =        0       2       3
    locmatsiz, ngk, matsiz, mbsiz:     318     108     426     426
    iblk, mstart, mend, size(minm) (Mb):       1       1      20          1.30
    ---> rank, ikp, iq =        0       2       4
    locmatsiz, ngk, matsiz, mbsiz:     318     108     426     426
    iblk, mstart, mend, size(minm) (Mb):       1       1      20          1.30
    ---> rank, ikp, iq =        0       2       5
    locmatsiz, ngk, matsiz, mbsiz:     318     108     426     426
    iblk, mstart, mend, size(minm) (Mb):       1       1      20          1.30
    ---> rank, ikp, iq =        0       2       6
    locmatsiz, ngk, matsiz, mbsiz:     318     108     426     426
    iblk, mstart, mend, size(minm) (Mb):       1       1      20          1.30
    ---> rank, ikp, iq =        0       2       7
    locmatsiz, ngk, matsiz, mbsiz:     318     108     426     426
    iblk, mstart, mend, size(minm) (Mb):       1       1      20          1.30
    ---> rank, ikp, iq =        0       2       8
    locmatsiz, ngk, matsiz, mbsiz:     318     108     426     426
    iblk, mstart, mend, size(minm) (Mb):       1       1      20          1.30
    ---> rank, ikp, iq =        0       3       1
    locmatsiz, ngk, matsiz, mbsiz:     318     113     431     430
    iblk, mstart, mend, size(minm) (Mb):       1       1      20          1.31
    ---> rank, ikp, iq =        0       3       2
    locmatsiz, ngk, matsiz, mbsiz:     318     108     426     426
    iblk, mstart, mend, size(minm) (Mb):       1       1      20          1.30
    ---> rank, ikp, iq =        0       3       3
    locmatsiz, ngk, matsiz, mbsiz:     318     108     426     426
    iblk, mstart, mend, size(minm) (Mb):       1       1      20          1.30
    ---> rank, ikp, iq =        0       3       4
    locmatsiz, ngk, matsiz, mbsiz:     318     108     426     426
    iblk, mstart, mend, size(minm) (Mb):       1       1      20          1.30
    ---> rank, ikp, iq =        0       3       5
    locmatsiz, ngk, matsiz, mbsiz:     318     108     426     426
    iblk, mstart, mend, size(minm) (Mb):       1       1      20          1.30
    ---> rank, ikp, iq =        0       3       6
    locmatsiz, ngk, matsiz, mbsiz:     318     108     426     426
    iblk, mstart, mend, size(minm) (Mb):       1       1      20          1.30
    ---> rank, ikp, iq =        0       3       7
    locmatsiz, ngk, matsiz, mbsiz:     318     108     426     426
    iblk, mstart, mend, size(minm) (Mb):       1       1      20          1.30
    ---> rank, ikp, iq =        0       3       8
    locmatsiz, ngk, matsiz, mbsiz:     318     108     426     426
    iblk, mstart, mend, size(minm) (Mb):       1       1      20          1.30
 
 CPU time for vxnl (seconds)                :         4.89
 CPU time for vnlmat (seconds)              :         0.00
 CPU time for scf_cycle (seconds)           :         4.09
 
 Total energy                               :      -570.72935435
 _______________________________________________________________
 Fermi energy                               :         0.20715012
 Kinetic energy                             :       581.36336535
 Coulomb energy                             :     -1119.57962564
 Non-local exchange energy                  :        -2.03519319
 Exchange energy                            :       -31.42142194
 Correlation energy                         :        -1.09167212
 Sum of eigenvalues                         :      -316.74018905
 Effective potential energy                 :      -885.64812171
 Coulomb potential energy                   :      -844.41171076
 xc potential energy                        :       -41.23641095
 Hartree energy                             :       187.42038463
 Electron-nuclear energy                    :     -1219.25248003
 Nuclear-nuclear energy                     :       -87.74753025
 Madelung energy                            :      -697.37377026
 Core-electron kinetic energy               :       570.66518796
 
 DOS at Fermi energy (states/Ha/cell)       :         0.00000000
 
 Electron charges :
     core                                   :        20.00000000
     core leakage                           :         0.00453459
     valence                                :         8.00000000
     interstitial                           :         3.96921697
     charge in muffin-tin spheres :
                  atom     1    Si          :        12.01539152
                  atom     2    Si          :        12.01539152
     total charge in muffin-tins            :        24.03078303
     total charge                           :        28.00000000
 
 Estimated fundamental gap                  :         0.06833952
        valence-band maximum at    1      0.0000  0.0000  0.0000
     conduction-band minimum at    3      0.0000  0.5000  0.5000
 
 Charge distance                   (target) :  0.667595E-03 ( 0.100000E-04)
 
++++++++++++++++++++++++++++++++++++++++++++++++++++++++++++++++++++++++++++++++
+ Hybrids iteration number :    3                                               
++++++++++++++++++++++++++++++++++++++++++++++++++++++++++++++++++++++++++++++++
 
 Info(calc_vxnl):
    mdim, nblk, mblksiz:       20       1 1000000
    ---> rank, ikp, iq =        0       1       1
    locmatsiz, ngk, matsiz, mbsiz:     318     113     431     430
    iblk, mstart, mend, size(minm) (Mb):       1       1      20          1.31
    ---> rank, ikp, iq =        0       1       2
    locmatsiz, ngk, matsiz, mbsiz:     318     108     426     426
    iblk, mstart, mend, size(minm) (Mb):       1       1      20          1.30
    ---> rank, ikp, iq =        0       1       3
    locmatsiz, ngk, matsiz, mbsiz:     318     108     426     426
    iblk, mstart, mend, size(minm) (Mb):       1       1      20          1.30
    ---> rank, ikp, iq =        0       1       4
    locmatsiz, ngk, matsiz, mbsiz:     318     108     426     426
    iblk, mstart, mend, size(minm) (Mb):       1       1      20          1.30
    ---> rank, ikp, iq =        0       1       5
    locmatsiz, ngk, matsiz, mbsiz:     318     108     426     426
    iblk, mstart, mend, size(minm) (Mb):       1       1      20          1.30
    ---> rank, ikp, iq =        0       1       6
    locmatsiz, ngk, matsiz, mbsiz:     318     108     426     426
    iblk, mstart, mend, size(minm) (Mb):       1       1      20          1.30
    ---> rank, ikp, iq =        0       1       7
    locmatsiz, ngk, matsiz, mbsiz:     318     108     426     426
    iblk, mstart, mend, size(minm) (Mb):       1       1      20          1.30
    ---> rank, ikp, iq =        0       1       8
    locmatsiz, ngk, matsiz, mbsiz:     318     108     426     426
    iblk, mstart, mend, size(minm) (Mb):       1       1      20          1.30
    ---> rank, ikp, iq =        0       2       1
    locmatsiz, ngk, matsiz, mbsiz:     318     113     431     430
    iblk, mstart, mend, size(minm) (Mb):       1       1      20          1.31
    ---> rank, ikp, iq =        0       2       2
    locmatsiz, ngk, matsiz, mbsiz:     318     108     426     426
    iblk, mstart, mend, size(minm) (Mb):       1       1      20          1.30
    ---> rank, ikp, iq =        0       2       3
    locmatsiz, ngk, matsiz, mbsiz:     318     108     426     426
    iblk, mstart, mend, size(minm) (Mb):       1       1      20          1.30
    ---> rank, ikp, iq =        0       2       4
    locmatsiz, ngk, matsiz, mbsiz:     318     108     426     426
    iblk, mstart, mend, size(minm) (Mb):       1       1      20          1.30
    ---> rank, ikp, iq =        0       2       5
    locmatsiz, ngk, matsiz, mbsiz:     318     108     426     426
    iblk, mstart, mend, size(minm) (Mb):       1       1      20          1.30
    ---> rank, ikp, iq =        0       2       6
    locmatsiz, ngk, matsiz, mbsiz:     318     108     426     426
    iblk, mstart, mend, size(minm) (Mb):       1       1      20          1.30
    ---> rank, ikp, iq =        0       2       7
    locmatsiz, ngk, matsiz, mbsiz:     318     108     426     426
    iblk, mstart, mend, size(minm) (Mb):       1       1      20          1.30
    ---> rank, ikp, iq =        0       2       8
    locmatsiz, ngk, matsiz, mbsiz:     318     108     426     426
    iblk, mstart, mend, size(minm) (Mb):       1       1      20          1.30
    ---> rank, ikp, iq =        0       3       1
    locmatsiz, ngk, matsiz, mbsiz:     318     113     431     430
    iblk, mstart, mend, size(minm) (Mb):       1       1      20          1.31
    ---> rank, ikp, iq =        0       3       2
    locmatsiz, ngk, matsiz, mbsiz:     318     108     426     426
    iblk, mstart, mend, size(minm) (Mb):       1       1      20          1.30
    ---> rank, ikp, iq =        0       3       3
    locmatsiz, ngk, matsiz, mbsiz:     318     108     426     426
    iblk, mstart, mend, size(minm) (Mb):       1       1      20          1.30
    ---> rank, ikp, iq =        0       3       4
    locmatsiz, ngk, matsiz, mbsiz:     318     108     426     426
    iblk, mstart, mend, size(minm) (Mb):       1       1      20          1.30
    ---> rank, ikp, iq =        0       3       5
    locmatsiz, ngk, matsiz, mbsiz:     318     108     426     426
    iblk, mstart, mend, size(minm) (Mb):       1       1      20          1.30
    ---> rank, ikp, iq =        0       3       6
    locmatsiz, ngk, matsiz, mbsiz:     318     108     426     426
    iblk, mstart, mend, size(minm) (Mb):       1       1      20          1.30
    ---> rank, ikp, iq =        0       3       7
    locmatsiz, ngk, matsiz, mbsiz:     318     108     426     426
    iblk, mstart, mend, size(minm) (Mb):       1       1      20          1.30
    ---> rank, ikp, iq =        0       3       8
    locmatsiz, ngk, matsiz, mbsiz:     318     108     426     426
    iblk, mstart, mend, size(minm) (Mb):       1       1      20          1.30
 
 CPU time for vxnl (seconds)                :         4.89
 CPU time for vnlmat (seconds)              :         0.00
 CPU time for scf_cycle (seconds)           :         2.30
 
 Total energy                               :      -570.72890173
 _______________________________________________________________
 Fermi energy                               :         0.20728150
 Kinetic energy                             :       581.36027034
 Coulomb energy                             :     -1119.57672861
 Non-local exchange energy                  :        -2.03354179
 Exchange energy                            :       -31.42075933
 Correlation energy                         :        -1.09168413
 Sum of eigenvalues                         :      -316.73939522
 Effective potential energy                 :      -885.64924089
 Coulomb potential energy                   :      -844.41314087
 xc potential energy                        :       -41.23610002
 Hartree energy                             :       187.41605750
 Electron-nuclear energy                    :     -1219.24525586
 Nuclear-nuclear energy                     :       -87.74753025
 Madelung energy                            :      -697.37015818
 Core-electron kinetic energy               :       570.66518796
 
 DOS at Fermi energy (states/Ha/cell)       :         0.00000000
 
 Electron charges :
     core                                   :        20.00000000
     core leakage                           :         0.00453459
     valence                                :         8.00000000
     interstitial                           :         3.97009201
     charge in muffin-tin spheres :
                  atom     1    Si          :        12.01495400
                  atom     2    Si          :        12.01495400
     total charge in muffin-tins            :        24.02990799
     total charge                           :        28.00000000
 
 Estimated fundamental gap                  :         0.06833886
        valence-band maximum at    1      0.0000  0.0000  0.0000
     conduction-band minimum at    3      0.0000  0.5000  0.5000
 
 Charge distance                   (target) :  0.688309E-04 ( 0.100000E-04)
 
++++++++++++++++++++++++++++++++++++++++++++++++++++++++++++++++++++++++++++++++
+ Hybrids iteration number :    4                                               
++++++++++++++++++++++++++++++++++++++++++++++++++++++++++++++++++++++++++++++++
 
 Info(calc_vxnl):
    mdim, nblk, mblksiz:       20       1 1000000
    ---> rank, ikp, iq =        0       1       1
    locmatsiz, ngk, matsiz, mbsiz:     318     113     431     430
    iblk, mstart, mend, size(minm) (Mb):       1       1      20          1.31
    ---> rank, ikp, iq =        0       1       2
    locmatsiz, ngk, matsiz, mbsiz:     318     108     426     426
    iblk, mstart, mend, size(minm) (Mb):       1       1      20          1.30
    ---> rank, ikp, iq =        0       1       3
    locmatsiz, ngk, matsiz, mbsiz:     318     108     426     426
    iblk, mstart, mend, size(minm) (Mb):       1       1      20          1.30
    ---> rank, ikp, iq =        0       1       4
    locmatsiz, ngk, matsiz, mbsiz:     318     108     426     426
    iblk, mstart, mend, size(minm) (Mb):       1       1      20          1.30
    ---> rank, ikp, iq =        0       1       5
    locmatsiz, ngk, matsiz, mbsiz:     318     108     426     426
    iblk, mstart, mend, size(minm) (Mb):       1       1      20          1.30
    ---> rank, ikp, iq =        0       1       6
    locmatsiz, ngk, matsiz, mbsiz:     318     108     426     426
    iblk, mstart, mend, size(minm) (Mb):       1       1      20          1.30
    ---> rank, ikp, iq =        0       1       7
    locmatsiz, ngk, matsiz, mbsiz:     318     108     426     426
    iblk, mstart, mend, size(minm) (Mb):       1       1      20          1.30
    ---> rank, ikp, iq =        0       1       8
    locmatsiz, ngk, matsiz, mbsiz:     318     108     426     426
    iblk, mstart, mend, size(minm) (Mb):       1       1      20          1.30
    ---> rank, ikp, iq =        0       2       1
    locmatsiz, ngk, matsiz, mbsiz:     318     113     431     430
    iblk, mstart, mend, size(minm) (Mb):       1       1      20          1.31
    ---> rank, ikp, iq =        0       2       2
    locmatsiz, ngk, matsiz, mbsiz:     318     108     426     426
    iblk, mstart, mend, size(minm) (Mb):       1       1      20          1.30
    ---> rank, ikp, iq =        0       2       3
    locmatsiz, ngk, matsiz, mbsiz:     318     108     426     426
    iblk, mstart, mend, size(minm) (Mb):       1       1      20          1.30
    ---> rank, ikp, iq =        0       2       4
    locmatsiz, ngk, matsiz, mbsiz:     318     108     426     426
    iblk, mstart, mend, size(minm) (Mb):       1       1      20          1.30
    ---> rank, ikp, iq =        0       2       5
    locmatsiz, ngk, matsiz, mbsiz:     318     108     426     426
    iblk, mstart, mend, size(minm) (Mb):       1       1      20          1.30
    ---> rank, ikp, iq =        0       2       6
    locmatsiz, ngk, matsiz, mbsiz:     318     108     426     426
    iblk, mstart, mend, size(minm) (Mb):       1       1      20          1.30
    ---> rank, ikp, iq =        0       2       7
    locmatsiz, ngk, matsiz, mbsiz:     318     108     426     426
    iblk, mstart, mend, size(minm) (Mb):       1       1      20          1.30
    ---> rank, ikp, iq =        0       2       8
    locmatsiz, ngk, matsiz, mbsiz:     318     108     426     426
    iblk, mstart, mend, size(minm) (Mb):       1       1      20          1.30
    ---> rank, ikp, iq =        0       3       1
    locmatsiz, ngk, matsiz, mbsiz:     318     113     431     430
    iblk, mstart, mend, size(minm) (Mb):       1       1      20          1.31
    ---> rank, ikp, iq =        0       3       2
    locmatsiz, ngk, matsiz, mbsiz:     318     108     426     426
    iblk, mstart, mend, size(minm) (Mb):       1       1      20          1.30
    ---> rank, ikp, iq =        0       3       3
    locmatsiz, ngk, matsiz, mbsiz:     318     108     426     426
    iblk, mstart, mend, size(minm) (Mb):       1       1      20          1.30
    ---> rank, ikp, iq =        0       3       4
    locmatsiz, ngk, matsiz, mbsiz:     318     108     426     426
    iblk, mstart, mend, size(minm) (Mb):       1       1      20          1.30
    ---> rank, ikp, iq =        0       3       5
    locmatsiz, ngk, matsiz, mbsiz:     318     108     426     426
    iblk, mstart, mend, size(minm) (Mb):       1       1      20          1.30
    ---> rank, ikp, iq =        0       3       6
    locmatsiz, ngk, matsiz, mbsiz:     318     108     426     426
    iblk, mstart, mend, size(minm) (Mb):       1       1      20          1.30
    ---> rank, ikp, iq =        0       3       7
    locmatsiz, ngk, matsiz, mbsiz:     318     108     426     426
    iblk, mstart, mend, size(minm) (Mb):       1       1      20          1.30
    ---> rank, ikp, iq =        0       3       8
    locmatsiz, ngk, matsiz, mbsiz:     318     108     426     426
    iblk, mstart, mend, size(minm) (Mb):       1       1      20          1.30
 
 CPU time for vxnl (seconds)                :         4.90
 CPU time for vnlmat (seconds)              :         0.00
 CPU time for scf_cycle (seconds)           :         2.33
 
 Total energy                               :      -570.72885556
 _______________________________________________________________
 Fermi energy                               :         0.20730041
 Kinetic energy                             :       581.35986312
 Coulomb energy                             :     -1119.57634742
 Non-local exchange energy                  :        -2.03337787
 Exchange energy                            :       -31.42068566
 Correlation energy                         :        -1.09168560
 Sum of eigenvalues                         :      -316.73932220
 Effective potential energy                 :      -885.64938059
 Coulomb potential energy                   :      -844.41332118
 xc potential energy                        :       -41.23605941
 Hartree energy                             :       187.41549599
 Electron-nuclear energy                    :     -1219.24431316
 Nuclear-nuclear energy                     :       -87.74753025
 Madelung energy                            :      -697.36968682
 Core-electron kinetic energy               :       570.66518796
 
 DOS at Fermi energy (states/Ha/cell)       :         0.00000000
 
 Electron charges :
     core                                   :        20.00000000
     core leakage                           :         0.00453459
     valence                                :         8.00000000
     interstitial                           :         3.97020488
     charge in muffin-tin spheres :
                  atom     1    Si          :        12.01489756
                  atom     2    Si          :        12.01489756
     total charge in muffin-tins            :        24.02979512
     total charge                           :        28.00000000
 
 Estimated fundamental gap                  :         0.06831654
        valence-band maximum at    1      0.0000  0.0000  0.0000
     conduction-band minimum at    3      0.0000  0.5000  0.5000
 
 Charge distance                   (target) :  0.962517E-05 ( 0.100000E-04)
 
++++++++++++++++++++++++++++++++++++++++++++++++++++++++++++++++++++++++++++++++
Convergence target is reached                                                   
++++++++++++++++++++++++++++++++++++++++++++++++++++++++++++++++++++++++++++++++
 
++++++++++++++++++++++++++++++++++++++++++++++++++++++++++++++++++++++++++++++++
+ Hybrids module stopped                                                        
++++++++++++++++++++++++++++++++++++++++++++++++++++++++++++++++++++++++++++++++
 
--------------------------------------------------------------------------------
Timings (seconds)                                                               
--------------------------------------------------------------------------------
 initialisation                        :         0.30
            - init0                    :         0.14
            - init1                    :         0.03
            - rhoinit                  :         0.01
            - potential initialisation :         0.11
            - others                   :         0.01
 Hamiltonian and overlap matrix set up :         0.17
            - hmlaan                   :         0.09
            - hmlalon                  :         0.00
            - hmllolon                 :         0.00
            - olpaan                   :         0.04
            - olpalon                  :         0.00
            - olplolon                 :         0.00
            - hmlistln                 :         0.01
            - olpistln                 :         0.00
 first-variational secular equation    :         0.15
 charge density calculation            :         0.28
 potential calculation                 :         8.74
 muffin-tin manipulations              :         3.38
 APW matching                          :         0.04
 disk reads/writes                     :         0.07
 mixing efforts                        :         0.01
 sum                                   :        13.13
 Dirac eqn solver                      :         0.10
 Rel. Schroedinger eqn solver          :         0.08
 Total time spent in radial solvers    :         0.18
 
 Total time spent (seconds)            :        37.47
 
================================================================================
EXCITING OXYGEN stopped                                                         
================================================================================
