================================================================================
| EXCITING NITROGEN-14 started                                                 =
| version hash id: 1775bff4453c84689fb848894a9224f155377cfc                    =
|                                                                              =
|                                                                              =
| Date (DD-MM-YYYY) : 10-12-2020                                               =
| Time (hh:mm:ss)   : 20:03:09                                                 =
|                                                                              =
| All units are atomic (Hartree, Bohr, etc.)                                   =
================================================================================
 
********************************************************************************
* Ground-state run starting from atomic densities                              *
********************************************************************************
 
++++++++++++++++++++++++++++++++++++++++++++++++++++++++++++++++++++++++++++++++
+ Starting initialization                                                      +
++++++++++++++++++++++++++++++++++++++++++++++++++++++++++++++++++++++++++++++++
 
 Lattice vectors (cartesian) :
      5.1300000000      5.1300000000      0.0000000000
      5.1300000000      0.0000000000      5.1300000000
      0.0000000000      5.1300000000      5.1300000000
 
 Reciprocal lattice vectors (cartesian) :
      0.6123962288      0.6123962288     -0.6123962288
      0.6123962288     -0.6123962288      0.6123962288
     -0.6123962288      0.6123962288      0.6123962288
 
 Unit cell volume                           :     270.0113940000
 Brillouin zone volume                      :       0.9186657265
 
 Species :    1 (Si)
     parameters loaded from                 :    Si.xml
     name                                   :    silicon
     nuclear charge                         :     -14.00000000
     electronic charge                      :      14.00000000
     atomic mass                            :   51196.73454000
     muffin-tin radius                      :       2.10000000
     # of radial points in muffin-tin       :     300
 
     atomic positions (lattice) :
       1 :   0.00000000  0.00000000  0.00000000
       2 :   0.25000000  0.25000000  0.25000000
 
 Total number of atoms per unit cell        :       2
 
 Spin treatment                             :    spin-unpolarised
 
 Number of Bravais lattice symmetries       :      48
 Number of crystal symmetries               :      48
 
 k-point grid                               :       2    2    2
 Total number of k-points                   :       3
 k-point set is reduced with crystal symmetries
 
 R^MT_min * |G+k|_max (rgkmax)              :       6.00000000
 Species with R^MT_min                      :       1 (Si)
 Maximum |G+k| for APW functions            :       2.85714286
 Maximum |G| for potential and density      :      12.00000000
 Polynomial order for pseudochg. density    :       9
 
 G-vector grid sizes                        :      30    30    30
 Total number of G-vectors                  :    7799
 
 Maximum angular momentum used for
     APW functions                          :       8
     computing H and O matrix elements      :       8
     potential and density                  :       8
     inner part of muffin-tin               :       2
 
 Total nuclear charge                       :     -28.00000000
 Total electronic charge                    :      28.00000000
 Total core charge                          :      20.00000000
 Total valence charge                       :       8.00000000
 
 Effective Wigner radius, r_s               :       1.32041916
 
 Number of empty states                     :       5
 Total number of valence states             :      10
 
 Maximum Hamiltonian size                   :     121
 Maximum number of plane-waves              :     113
 Total number of local-orbitals             :       8
 
 Exchange-correlation type                  :     408
     HSE, Jochen Heyd; Gustavo E. Scuseria; Matthias Ernzerhof, J. Chem. Phys. 118, 8207 (2003)
     Hybrid functional 
     Exchange type                          :       HF
     Mixing coefficient for exact exchange  :       0.25000000
     Screening parameter (omega)            :       0.10600000
 
 Smearing scheme                            :    Extended linear tetrahedron method
 
 Using multisecant Broyden potential mixing
 
++++++++++++++++++++++++++++++++++++++++++++++++++++++++++++++++++++++++++++++++
+ Ending initialization                                                        +
++++++++++++++++++++++++++++++++++++++++++++++++++++++++++++++++++++++++++++++++
 
********************************************************************************
* Hybrids module started                                                        
********************************************************************************
 
 Performing PBE self-consistent run
 Storing STATE_PBE.OUT
 
++++++++++++++++++++++++++++++++++++++++++++++++++++++++++++++++++++++++++++++++
+ Hybrids iteration number :    1                                               
++++++++++++++++++++++++++++++++++++++++++++++++++++++++++++++++++++++++++++++++
 
 Info(calc_vxnl):
    mdim, nblk, mblksiz:       20       1 1000000
    ---> rank, ikp, iq =        0       1       1
    locmatsiz, ngk, matsiz, mbsiz:     318     113     431     430
    iblk, mstart, mend, size(minm) (Mb):       1       1      20          1.31
    ---> rank, ikp, iq =        0       1       2
    locmatsiz, ngk, matsiz, mbsiz:     318     108     426     426
    iblk, mstart, mend, size(minm) (Mb):       1       1      20          1.30
    ---> rank, ikp, iq =        0       1       3
    locmatsiz, ngk, matsiz, mbsiz:     318     108     426     426
    iblk, mstart, mend, size(minm) (Mb):       1       1      20          1.30
    ---> rank, ikp, iq =        0       1       4
    locmatsiz, ngk, matsiz, mbsiz:     318     108     426     426
    iblk, mstart, mend, size(minm) (Mb):       1       1      20          1.30
    ---> rank, ikp, iq =        0       1       5
    locmatsiz, ngk, matsiz, mbsiz:     318     108     426     426
    iblk, mstart, mend, size(minm) (Mb):       1       1      20          1.30
    ---> rank, ikp, iq =        0       1       6
    locmatsiz, ngk, matsiz, mbsiz:     318     108     426     426
    iblk, mstart, mend, size(minm) (Mb):       1       1      20          1.30
    ---> rank, ikp, iq =        0       1       7
    locmatsiz, ngk, matsiz, mbsiz:     318     108     426     426
    iblk, mstart, mend, size(minm) (Mb):       1       1      20          1.30
    ---> rank, ikp, iq =        0       1       8
    locmatsiz, ngk, matsiz, mbsiz:     318     108     426     426
    iblk, mstart, mend, size(minm) (Mb):       1       1      20          1.30
    ---> rank, ikp, iq =        0       2       1
    locmatsiz, ngk, matsiz, mbsiz:     318     113     431     430
    iblk, mstart, mend, size(minm) (Mb):       1       1      20          1.31
    ---> rank, ikp, iq =        0       2       2
    locmatsiz, ngk, matsiz, mbsiz:     318     108     426     426
    iblk, mstart, mend, size(minm) (Mb):       1       1      20          1.30
    ---> rank, ikp, iq =        0       2       3
    locmatsiz, ngk, matsiz, mbsiz:     318     108     426     426
    iblk, mstart, mend, size(minm) (Mb):       1       1      20          1.30
    ---> rank, ikp, iq =        0       2       4
    locmatsiz, ngk, matsiz, mbsiz:     318     108     426     426
    iblk, mstart, mend, size(minm) (Mb):       1       1      20          1.30
    ---> rank, ikp, iq =        0       2       5
    locmatsiz, ngk, matsiz, mbsiz:     318     108     426     426
    iblk, mstart, mend, size(minm) (Mb):       1       1      20          1.30
    ---> rank, ikp, iq =        0       2       6
    locmatsiz, ngk, matsiz, mbsiz:     318     108     426     426
    iblk, mstart, mend, size(minm) (Mb):       1       1      20          1.30
    ---> rank, ikp, iq =        0       2       7
    locmatsiz, ngk, matsiz, mbsiz:     318     108     426     426
    iblk, mstart, mend, size(minm) (Mb):       1       1      20          1.30
    ---> rank, ikp, iq =        0       2       8
    locmatsiz, ngk, matsiz, mbsiz:     318     108     426     426
    iblk, mstart, mend, size(minm) (Mb):       1       1      20          1.30
    ---> rank, ikp, iq =        0       3       1
    locmatsiz, ngk, matsiz, mbsiz:     318     113     431     430
    iblk, mstart, mend, size(minm) (Mb):       1       1      20          1.31
    ---> rank, ikp, iq =        0       3       2
    locmatsiz, ngk, matsiz, mbsiz:     318     108     426     426
    iblk, mstart, mend, size(minm) (Mb):       1       1      20          1.30
    ---> rank, ikp, iq =        0       3       3
    locmatsiz, ngk, matsiz, mbsiz:     318     108     426     426
    iblk, mstart, mend, size(minm) (Mb):       1       1      20          1.30
    ---> rank, ikp, iq =        0       3       4
    locmatsiz, ngk, matsiz, mbsiz:     318     108     426     426
    iblk, mstart, mend, size(minm) (Mb):       1       1      20          1.30
    ---> rank, ikp, iq =        0       3       5
    locmatsiz, ngk, matsiz, mbsiz:     318     108     426     426
    iblk, mstart, mend, size(minm) (Mb):       1       1      20          1.30
    ---> rank, ikp, iq =        0       3       6
    locmatsiz, ngk, matsiz, mbsiz:     318     108     426     426
    iblk, mstart, mend, size(minm) (Mb):       1       1      20          1.30
    ---> rank, ikp, iq =        0       3       7
    locmatsiz, ngk, matsiz, mbsiz:     318     108     426     426
    iblk, mstart, mend, size(minm) (Mb):       1       1      20          1.30
    ---> rank, ikp, iq =        0       3       8
    locmatsiz, ngk, matsiz, mbsiz:     318     108     426     426
    iblk, mstart, mend, size(minm) (Mb):       1       1      20          1.30
 
 CPU time for vxnl (seconds)                :         9.39
 CPU time for vnlmat (seconds)              :         0.01
 CPU time for scf_cycle (seconds)           :        15.14
 
 Total energy                               :      -570.72890272
 _______________________________________________________________
 Fermi energy                               :         0.20510180
 Kinetic energy                             :       581.39576570
 Coulomb energy                             :     -1119.60991501
 Non-local exchange energy                  :        -2.09291588
 Exchange energy                            :       -31.42319709
 Correlation energy                         :        -1.09155632
 Sum of eigenvalues                         :      -316.76346886
 Effective potential energy                 :      -885.62226411
 Coulomb potential energy                   :      -844.39801427
 xc potential energy                        :       -41.22424984
 Hartree energy                             :       187.46437049
 Electron-nuclear energy                    :     -1219.32675525
 Nuclear-nuclear energy                     :       -87.74753025
 Madelung energy                            :      -697.41090787
 Core-electron kinetic energy               :       570.66518796
 
 DOS at Fermi energy (states/Ha/cell)       :         0.00000000
 
 Electron charges :
     core                                   :        20.00000000
     core leakage                           :         0.00453459
     valence                                :         8.00000000
     interstitial                           :         3.96028122
     charge in muffin-tin spheres :
                  atom     1    Si          :        12.01985939
                  atom     2    Si          :        12.01985939
     total charge in muffin-tins            :        24.03971878
     total charge                           :        28.00000000
 
 Estimated fundamental gap                  :         0.06936135
        valence-band maximum at    1      0.0000  0.0000  0.0000
     conduction-band minimum at    3      0.0000  0.5000  0.5000
 
 Charge distance                   (target) :  0.815750E-02 ( 0.100000E-04)
 
++++++++++++++++++++++++++++++++++++++++++++++++++++++++++++++++++++++++++++++++
+ Hybrids iteration number :    2                                               
++++++++++++++++++++++++++++++++++++++++++++++++++++++++++++++++++++++++++++++++
 
 Info(calc_vxnl):
    mdim, nblk, mblksiz:       20       1 1000000
    ---> rank, ikp, iq =        0       1       1
    locmatsiz, ngk, matsiz, mbsiz:     318     113     431     430
    iblk, mstart, mend, size(minm) (Mb):       1       1      20          1.31
    ---> rank, ikp, iq =        0       1       2
    locmatsiz, ngk, matsiz, mbsiz:     318     108     426     426
    iblk, mstart, mend, size(minm) (Mb):       1       1      20          1.30
    ---> rank, ikp, iq =        0       1       3
    locmatsiz, ngk, matsiz, mbsiz:     318     108     426     426
    iblk, mstart, mend, size(minm) (Mb):       1       1      20          1.30
    ---> rank, ikp, iq =        0       1       4
    locmatsiz, ngk, matsiz, mbsiz:     318     108     426     426
    iblk, mstart, mend, size(minm) (Mb):       1       1      20          1.30
    ---> rank, ikp, iq =        0       1       5
    locmatsiz, ngk, matsiz, mbsiz:     318     108     426     426
    iblk, mstart, mend, size(minm) (Mb):       1       1      20          1.30
    ---> rank, ikp, iq =        0       1       6
    locmatsiz, ngk, matsiz, mbsiz:     318     108     426     426
    iblk, mstart, mend, size(minm) (Mb):       1       1      20          1.30
    ---> rank, ikp, iq =        0       1       7
    locmatsiz, ngk, matsiz, mbsiz:     318     108     426     426
    iblk, mstart, mend, size(minm) (Mb):       1       1      20          1.30
    ---> rank, ikp, iq =        0       1       8
    locmatsiz, ngk, matsiz, mbsiz:     318     108     426     426
    iblk, mstart, mend, size(minm) (Mb):       1       1      20          1.30
    ---> rank, ikp, iq =        0       2       1
    locmatsiz, ngk, matsiz, mbsiz:     318     113     431     430
    iblk, mstart, mend, size(minm) (Mb):       1       1      20          1.31
    ---> rank, ikp, iq =        0       2       2
    locmatsiz, ngk, matsiz, mbsiz:     318     108     426     426
    iblk, mstart, mend, size(minm) (Mb):       1       1      20          1.30
    ---> rank, ikp, iq =        0       2       3
    locmatsiz, ngk, matsiz, mbsiz:     318     108     426     426
    iblk, mstart, mend, size(minm) (Mb):       1       1      20          1.30
    ---> rank, ikp, iq =        0       2       4
    locmatsiz, ngk, matsiz, mbsiz:     318     108     426     426
    iblk, mstart, mend, size(minm) (Mb):       1       1      20          1.30
    ---> rank, ikp, iq =        0       2       5
    locmatsiz, ngk, matsiz, mbsiz:     318     108     426     426
    iblk, mstart, mend, size(minm) (Mb):       1       1      20          1.30
    ---> rank, ikp, iq =        0       2       6
    locmatsiz, ngk, matsiz, mbsiz:     318     108     426     426
    iblk, mstart, mend, size(minm) (Mb):       1       1      20          1.30
    ---> rank, ikp, iq =        0       2       7
    locmatsiz, ngk, matsiz, mbsiz:     318     108     426     426
    iblk, mstart, mend, size(minm) (Mb):       1       1      20          1.30
    ---> rank, ikp, iq =        0       2       8
    locmatsiz, ngk, matsiz, mbsiz:     318     108     426     426
    iblk, mstart, mend, size(minm) (Mb):       1       1      20          1.30
    ---> rank, ikp, iq =        0       3       1
    locmatsiz, ngk, matsiz, mbsiz:     318     113     431     430
    iblk, mstart, mend, size(minm) (Mb):       1       1      20          1.31
    ---> rank, ikp, iq =        0       3       2
    locmatsiz, ngk, matsiz, mbsiz:     318     108     426     426
    iblk, mstart, mend, size(minm) (Mb):       1       1      20          1.30
    ---> rank, ikp, iq =        0       3       3
    locmatsiz, ngk, matsiz, mbsiz:     318     108     426     426
    iblk, mstart, mend, size(minm) (Mb):       1       1      20          1.30
    ---> rank, ikp, iq =        0       3       4
    locmatsiz, ngk, matsiz, mbsiz:     318     108     426     426
    iblk, mstart, mend, size(minm) (Mb):       1       1      20          1.30
    ---> rank, ikp, iq =        0       3       5
    locmatsiz, ngk, matsiz, mbsiz:     318     108     426     426
    iblk, mstart, mend, size(minm) (Mb):       1       1      20          1.30
    ---> rank, ikp, iq =        0       3       6
    locmatsiz, ngk, matsiz, mbsiz:     318     108     426     426
    iblk, mstart, mend, size(minm) (Mb):       1       1      20          1.30
    ---> rank, ikp, iq =        0       3       7
    locmatsiz, ngk, matsiz, mbsiz:     318     108     426     426
    iblk, mstart, mend, size(minm) (Mb):       1       1      20          1.30
    ---> rank, ikp, iq =        0       3       8
    locmatsiz, ngk, matsiz, mbsiz:     318     108     426     426
    iblk, mstart, mend, size(minm) (Mb):       1       1      20          1.30
 
 CPU time for vxnl (seconds)                :         9.43
 CPU time for vnlmat (seconds)              :         0.02
 CPU time for scf_cycle (seconds)           :        10.57
 
 Total energy                               :      -570.72357890
 _______________________________________________________________
 Fermi energy                               :         0.20644636
 Kinetic energy                             :       581.36274267
 Coulomb energy                             :     -1119.57908458
 Non-local exchange energy                  :        -2.07263617
 Exchange energy                            :       -31.41555819
 Correlation energy                         :        -1.09167881
 Sum of eigenvalues                         :      -316.75500877
 Effective potential energy                 :      -885.63330738
 Coulomb potential energy                   :      -844.41227893
 xc potential energy                        :       -41.22102845
 Hartree energy                             :       187.41927540
 Electron-nuclear energy                    :     -1219.25082973
 Nuclear-nuclear energy                     :       -87.74753025
 Madelung energy                            :      -697.37294511
 Core-electron kinetic energy               :       570.66518796
 
 DOS at Fermi energy (states/Ha/cell)       :         0.00000000
 
 Electron charges :
     core                                   :        20.00000000
     core leakage                           :         0.00453459
     valence                                :         8.00000000
     interstitial                           :         3.96943806
     charge in muffin-tin spheres :
                  atom     1    Si          :        12.01528097
                  atom     2    Si          :        12.01528097
     total charge in muffin-tins            :        24.03056194
     total charge                           :        28.00000000
 
 Estimated fundamental gap                  :         0.07060097
        valence-band maximum at    1      0.0000  0.0000  0.0000
     conduction-band minimum at    3      0.0000  0.5000  0.5000
 
 Charge distance                   (target) :  0.677090E-03 ( 0.100000E-04)
 
++++++++++++++++++++++++++++++++++++++++++++++++++++++++++++++++++++++++++++++++
+ Hybrids iteration number :    3                                               
++++++++++++++++++++++++++++++++++++++++++++++++++++++++++++++++++++++++++++++++
 
 Info(calc_vxnl):
    mdim, nblk, mblksiz:       20       1 1000000
    ---> rank, ikp, iq =        0       1       1
    locmatsiz, ngk, matsiz, mbsiz:     318     113     431     430
    iblk, mstart, mend, size(minm) (Mb):       1       1      20          1.31
    ---> rank, ikp, iq =        0       1       2
    locmatsiz, ngk, matsiz, mbsiz:     318     108     426     426
    iblk, mstart, mend, size(minm) (Mb):       1       1      20          1.30
    ---> rank, ikp, iq =        0       1       3
    locmatsiz, ngk, matsiz, mbsiz:     318     108     426     426
    iblk, mstart, mend, size(minm) (Mb):       1       1      20          1.30
    ---> rank, ikp, iq =        0       1       4
    locmatsiz, ngk, matsiz, mbsiz:     318     108     426     426
    iblk, mstart, mend, size(minm) (Mb):       1       1      20          1.30
    ---> rank, ikp, iq =        0       1       5
    locmatsiz, ngk, matsiz, mbsiz:     318     108     426     426
    iblk, mstart, mend, size(minm) (Mb):       1       1      20          1.30
    ---> rank, ikp, iq =        0       1       6
    locmatsiz, ngk, matsiz, mbsiz:     318     108     426     426
    iblk, mstart, mend, size(minm) (Mb):       1       1      20          1.30
    ---> rank, ikp, iq =        0       1       7
    locmatsiz, ngk, matsiz, mbsiz:     318     108     426     426
    iblk, mstart, mend, size(minm) (Mb):       1       1      20          1.30
    ---> rank, ikp, iq =        0       1       8
    locmatsiz, ngk, matsiz, mbsiz:     318     108     426     426
    iblk, mstart, mend, size(minm) (Mb):       1       1      20          1.30
    ---> rank, ikp, iq =        0       2       1
    locmatsiz, ngk, matsiz, mbsiz:     318     113     431     430
    iblk, mstart, mend, size(minm) (Mb):       1       1      20          1.31
    ---> rank, ikp, iq =        0       2       2
    locmatsiz, ngk, matsiz, mbsiz:     318     108     426     426
    iblk, mstart, mend, size(minm) (Mb):       1       1      20          1.30
    ---> rank, ikp, iq =        0       2       3
    locmatsiz, ngk, matsiz, mbsiz:     318     108     426     426
    iblk, mstart, mend, size(minm) (Mb):       1       1      20          1.30
    ---> rank, ikp, iq =        0       2       4
    locmatsiz, ngk, matsiz, mbsiz:     318     108     426     426
    iblk, mstart, mend, size(minm) (Mb):       1       1      20          1.30
    ---> rank, ikp, iq =        0       2       5
    locmatsiz, ngk, matsiz, mbsiz:     318     108     426     426
    iblk, mstart, mend, size(minm) (Mb):       1       1      20          1.30
    ---> rank, ikp, iq =        0       2       6
    locmatsiz, ngk, matsiz, mbsiz:     318     108     426     426
    iblk, mstart, mend, size(minm) (Mb):       1       1      20          1.30
    ---> rank, ikp, iq =        0       2       7
    locmatsiz, ngk, matsiz, mbsiz:     318     108     426     426
    iblk, mstart, mend, size(minm) (Mb):       1       1      20          1.30
    ---> rank, ikp, iq =        0       2       8
    locmatsiz, ngk, matsiz, mbsiz:     318     108     426     426
    iblk, mstart, mend, size(minm) (Mb):       1       1      20          1.30
    ---> rank, ikp, iq =        0       3       1
    locmatsiz, ngk, matsiz, mbsiz:     318     113     431     430
    iblk, mstart, mend, size(minm) (Mb):       1       1      20          1.31
    ---> rank, ikp, iq =        0       3       2
    locmatsiz, ngk, matsiz, mbsiz:     318     108     426     426
    iblk, mstart, mend, size(minm) (Mb):       1       1      20          1.30
    ---> rank, ikp, iq =        0       3       3
    locmatsiz, ngk, matsiz, mbsiz:     318     108     426     426
    iblk, mstart, mend, size(minm) (Mb):       1       1      20          1.30
    ---> rank, ikp, iq =        0       3       4
    locmatsiz, ngk, matsiz, mbsiz:     318     108     426     426
    iblk, mstart, mend, size(minm) (Mb):       1       1      20          1.30
    ---> rank, ikp, iq =        0       3       5
    locmatsiz, ngk, matsiz, mbsiz:     318     108     426     426
    iblk, mstart, mend, size(minm) (Mb):       1       1      20          1.30
    ---> rank, ikp, iq =        0       3       6
    locmatsiz, ngk, matsiz, mbsiz:     318     108     426     426
    iblk, mstart, mend, size(minm) (Mb):       1       1      20          1.30
    ---> rank, ikp, iq =        0       3       7
    locmatsiz, ngk, matsiz, mbsiz:     318     108     426     426
    iblk, mstart, mend, size(minm) (Mb):       1       1      20          1.30
    ---> rank, ikp, iq =        0       3       8
    locmatsiz, ngk, matsiz, mbsiz:     318     108     426     426
    iblk, mstart, mend, size(minm) (Mb):       1       1      20          1.30
 
 CPU time for vxnl (seconds)                :         9.15
 CPU time for vnlmat (seconds)              :         0.02
 CPU time for scf_cycle (seconds)           :         6.10
 
 Total energy                               :      -570.72311910
 _______________________________________________________________
 Fermi energy                               :         0.20657766
 Kinetic energy                             :       581.35956600
 Coulomb energy                             :     -1119.57610984
 Non-local exchange energy                  :        -2.07096542
 Exchange energy                            :       -31.41488418
 Correlation energy                         :        -1.09169108
 Sum of eigenvalues                         :      -316.75420594
 Effective potential energy                 :      -885.63445652
 Coulomb potential energy                   :      -844.41374725
 xc potential energy                        :       -41.22070927
 Hartree energy                             :       187.41483235
 Electron-nuclear energy                    :     -1219.24341195
 Nuclear-nuclear energy                     :       -87.74753025
 Madelung energy                            :      -697.36923622
 Core-electron kinetic energy               :       570.66518796
 
 DOS at Fermi energy (states/Ha/cell)       :         0.00000000
 
 Electron charges :
     core                                   :        20.00000000
     core leakage                           :         0.00453459
     valence                                :         8.00000000
     interstitial                           :         3.97033611
     charge in muffin-tin spheres :
                  atom     1    Si          :        12.01483194
                  atom     2    Si          :        12.01483194
     total charge in muffin-tins            :        24.02966389
     total charge                           :        28.00000000
 
 Estimated fundamental gap                  :         0.07059955
        valence-band maximum at    1      0.0000  0.0000  0.0000
     conduction-band minimum at    3      0.0000  0.5000  0.5000
 
 Charge distance                   (target) :  0.706592E-04 ( 0.100000E-04)
 
++++++++++++++++++++++++++++++++++++++++++++++++++++++++++++++++++++++++++++++++
+ Hybrids iteration number :    4                                               
++++++++++++++++++++++++++++++++++++++++++++++++++++++++++++++++++++++++++++++++
 
 Info(calc_vxnl):
    mdim, nblk, mblksiz:       20       1 1000000
    ---> rank, ikp, iq =        0       1       1
    locmatsiz, ngk, matsiz, mbsiz:     318     113     431     430
    iblk, mstart, mend, size(minm) (Mb):       1       1      20          1.31
    ---> rank, ikp, iq =        0       1       2
    locmatsiz, ngk, matsiz, mbsiz:     318     108     426     426
    iblk, mstart, mend, size(minm) (Mb):       1       1      20          1.30
    ---> rank, ikp, iq =        0       1       3
    locmatsiz, ngk, matsiz, mbsiz:     318     108     426     426
    iblk, mstart, mend, size(minm) (Mb):       1       1      20          1.30
    ---> rank, ikp, iq =        0       1       4
    locmatsiz, ngk, matsiz, mbsiz:     318     108     426     426
    iblk, mstart, mend, size(minm) (Mb):       1       1      20          1.30
    ---> rank, ikp, iq =        0       1       5
    locmatsiz, ngk, matsiz, mbsiz:     318     108     426     426
    iblk, mstart, mend, size(minm) (Mb):       1       1      20          1.30
    ---> rank, ikp, iq =        0       1       6
    locmatsiz, ngk, matsiz, mbsiz:     318     108     426     426
    iblk, mstart, mend, size(minm) (Mb):       1       1      20          1.30
    ---> rank, ikp, iq =        0       1       7
    locmatsiz, ngk, matsiz, mbsiz:     318     108     426     426
    iblk, mstart, mend, size(minm) (Mb):       1       1      20          1.30
    ---> rank, ikp, iq =        0       1       8
    locmatsiz, ngk, matsiz, mbsiz:     318     108     426     426
    iblk, mstart, mend, size(minm) (Mb):       1       1      20          1.30
    ---> rank, ikp, iq =        0       2       1
    locmatsiz, ngk, matsiz, mbsiz:     318     113     431     430
    iblk, mstart, mend, size(minm) (Mb):       1       1      20          1.31
    ---> rank, ikp, iq =        0       2       2
    locmatsiz, ngk, matsiz, mbsiz:     318     108     426     426
    iblk, mstart, mend, size(minm) (Mb):       1       1      20          1.30
    ---> rank, ikp, iq =        0       2       3
    locmatsiz, ngk, matsiz, mbsiz:     318     108     426     426
    iblk, mstart, mend, size(minm) (Mb):       1       1      20          1.30
    ---> rank, ikp, iq =        0       2       4
    locmatsiz, ngk, matsiz, mbsiz:     318     108     426     426
    iblk, mstart, mend, size(minm) (Mb):       1       1      20          1.30
    ---> rank, ikp, iq =        0       2       5
    locmatsiz, ngk, matsiz, mbsiz:     318     108     426     426
    iblk, mstart, mend, size(minm) (Mb):       1       1      20          1.30
    ---> rank, ikp, iq =        0       2       6
    locmatsiz, ngk, matsiz, mbsiz:     318     108     426     426
    iblk, mstart, mend, size(minm) (Mb):       1       1      20          1.30
    ---> rank, ikp, iq =        0       2       7
    locmatsiz, ngk, matsiz, mbsiz:     318     108     426     426
    iblk, mstart, mend, size(minm) (Mb):       1       1      20          1.30
    ---> rank, ikp, iq =        0       2       8
    locmatsiz, ngk, matsiz, mbsiz:     318     108     426     426
    iblk, mstart, mend, size(minm) (Mb):       1       1      20          1.30
    ---> rank, ikp, iq =        0       3       1
    locmatsiz, ngk, matsiz, mbsiz:     318     113     431     430
    iblk, mstart, mend, size(minm) (Mb):       1       1      20          1.31
    ---> rank, ikp, iq =        0       3       2
    locmatsiz, ngk, matsiz, mbsiz:     318     108     426     426
    iblk, mstart, mend, size(minm) (Mb):       1       1      20          1.30
    ---> rank, ikp, iq =        0       3       3
    locmatsiz, ngk, matsiz, mbsiz:     318     108     426     426
    iblk, mstart, mend, size(minm) (Mb):       1       1      20          1.30
    ---> rank, ikp, iq =        0       3       4
    locmatsiz, ngk, matsiz, mbsiz:     318     108     426     426
    iblk, mstart, mend, size(minm) (Mb):       1       1      20          1.30
    ---> rank, ikp, iq =        0       3       5
    locmatsiz, ngk, matsiz, mbsiz:     318     108     426     426
    iblk, mstart, mend, size(minm) (Mb):       1       1      20          1.30
    ---> rank, ikp, iq =        0       3       6
    locmatsiz, ngk, matsiz, mbsiz:     318     108     426     426
    iblk, mstart, mend, size(minm) (Mb):       1       1      20          1.30
    ---> rank, ikp, iq =        0       3       7
    locmatsiz, ngk, matsiz, mbsiz:     318     108     426     426
    iblk, mstart, mend, size(minm) (Mb):       1       1      20          1.30
    ---> rank, ikp, iq =        0       3       8
    locmatsiz, ngk, matsiz, mbsiz:     318     108     426     426
    iblk, mstart, mend, size(minm) (Mb):       1       1      20          1.30
 
 CPU time for vxnl (seconds)                :         9.26
 CPU time for vnlmat (seconds)              :         0.01
 CPU time for scf_cycle (seconds)           :         6.35
 
 Total energy                               :      -570.72307161
 _______________________________________________________________
 Fermi energy                               :         0.20659678
 Kinetic energy                             :       581.35914334
 Coulomb energy                             :     -1119.57571401
 Non-local exchange energy                  :        -2.07079815
 Exchange energy                            :       -31.41480833
 Correlation energy                         :        -1.09169261
 Sum of eigenvalues                         :      -316.75413074
 Effective potential energy                 :      -885.63460261
 Coulomb potential energy                   :      -844.41393561
 xc potential energy                        :       -41.22066700
 Hartree energy                             :       187.41424816
 Electron-nuclear energy                    :     -1219.24243192
 Nuclear-nuclear energy                     :       -87.74753025
 Madelung energy                            :      -697.36874621
 Core-electron kinetic energy               :       570.66518796
 
 DOS at Fermi energy (states/Ha/cell)       :         0.00000000
 
 Electron charges :
     core                                   :        20.00000000
     core leakage                           :         0.00453459
     valence                                :         8.00000000
     interstitial                           :         3.97045342
     charge in muffin-tin spheres :
                  atom     1    Si          :        12.01477329
                  atom     2    Si          :        12.01477329
     total charge in muffin-tins            :        24.02954658
     total charge                           :        28.00000000
 
 Estimated fundamental gap                  :         0.07057656
        valence-band maximum at    1      0.0000  0.0000  0.0000
     conduction-band minimum at    3      0.0000  0.5000  0.5000
 
 Charge distance                   (target) :  0.100190E-04 ( 0.100000E-04)
 
++++++++++++++++++++++++++++++++++++++++++++++++++++++++++++++++++++++++++++++++
+ Hybrids iteration number :    5                                               
++++++++++++++++++++++++++++++++++++++++++++++++++++++++++++++++++++++++++++++++
 
 Info(calc_vxnl):
    mdim, nblk, mblksiz:       20       1 1000000
    ---> rank, ikp, iq =        0       1       1
    locmatsiz, ngk, matsiz, mbsiz:     318     113     431     430
    iblk, mstart, mend, size(minm) (Mb):       1       1      20          1.31
    ---> rank, ikp, iq =        0       1       2
    locmatsiz, ngk, matsiz, mbsiz:     318     108     426     426
    iblk, mstart, mend, size(minm) (Mb):       1       1      20          1.30
    ---> rank, ikp, iq =        0       1       3
    locmatsiz, ngk, matsiz, mbsiz:     318     108     426     426
    iblk, mstart, mend, size(minm) (Mb):       1       1      20          1.30
    ---> rank, ikp, iq =        0       1       4
    locmatsiz, ngk, matsiz, mbsiz:     318     108     426     426
    iblk, mstart, mend, size(minm) (Mb):       1       1      20          1.30
    ---> rank, ikp, iq =        0       1       5
    locmatsiz, ngk, matsiz, mbsiz:     318     108     426     426
    iblk, mstart, mend, size(minm) (Mb):       1       1      20          1.30
    ---> rank, ikp, iq =        0       1       6
    locmatsiz, ngk, matsiz, mbsiz:     318     108     426     426
    iblk, mstart, mend, size(minm) (Mb):       1       1      20          1.30
    ---> rank, ikp, iq =        0       1       7
    locmatsiz, ngk, matsiz, mbsiz:     318     108     426     426
    iblk, mstart, mend, size(minm) (Mb):       1       1      20          1.30
    ---> rank, ikp, iq =        0       1       8
    locmatsiz, ngk, matsiz, mbsiz:     318     108     426     426
    iblk, mstart, mend, size(minm) (Mb):       1       1      20          1.30
    ---> rank, ikp, iq =        0       2       1
    locmatsiz, ngk, matsiz, mbsiz:     318     113     431     430
    iblk, mstart, mend, size(minm) (Mb):       1       1      20          1.31
    ---> rank, ikp, iq =        0       2       2
    locmatsiz, ngk, matsiz, mbsiz:     318     108     426     426
    iblk, mstart, mend, size(minm) (Mb):       1       1      20          1.30
    ---> rank, ikp, iq =        0       2       3
    locmatsiz, ngk, matsiz, mbsiz:     318     108     426     426
    iblk, mstart, mend, size(minm) (Mb):       1       1      20          1.30
    ---> rank, ikp, iq =        0       2       4
    locmatsiz, ngk, matsiz, mbsiz:     318     108     426     426
    iblk, mstart, mend, size(minm) (Mb):       1       1      20          1.30
    ---> rank, ikp, iq =        0       2       5
    locmatsiz, ngk, matsiz, mbsiz:     318     108     426     426
    iblk, mstart, mend, size(minm) (Mb):       1       1      20          1.30
    ---> rank, ikp, iq =        0       2       6
    locmatsiz, ngk, matsiz, mbsiz:     318     108     426     426
    iblk, mstart, mend, size(minm) (Mb):       1       1      20          1.30
    ---> rank, ikp, iq =        0       2       7
    locmatsiz, ngk, matsiz, mbsiz:     318     108     426     426
    iblk, mstart, mend, size(minm) (Mb):       1       1      20          1.30
    ---> rank, ikp, iq =        0       2       8
    locmatsiz, ngk, matsiz, mbsiz:     318     108     426     426
    iblk, mstart, mend, size(minm) (Mb):       1       1      20          1.30
    ---> rank, ikp, iq =        0       3       1
    locmatsiz, ngk, matsiz, mbsiz:     318     113     431     430
    iblk, mstart, mend, size(minm) (Mb):       1       1      20          1.31
    ---> rank, ikp, iq =        0       3       2
    locmatsiz, ngk, matsiz, mbsiz:     318     108     426     426
    iblk, mstart, mend, size(minm) (Mb):       1       1      20          1.30
    ---> rank, ikp, iq =        0       3       3
    locmatsiz, ngk, matsiz, mbsiz:     318     108     426     426
    iblk, mstart, mend, size(minm) (Mb):       1       1      20          1.30
    ---> rank, ikp, iq =        0       3       4
    locmatsiz, ngk, matsiz, mbsiz:     318     108     426     426
    iblk, mstart, mend, size(minm) (Mb):       1       1      20          1.30
    ---> rank, ikp, iq =        0       3       5
    locmatsiz, ngk, matsiz, mbsiz:     318     108     426     426
    iblk, mstart, mend, size(minm) (Mb):       1       1      20          1.30
    ---> rank, ikp, iq =        0       3       6
    locmatsiz, ngk, matsiz, mbsiz:     318     108     426     426
    iblk, mstart, mend, size(minm) (Mb):       1       1      20          1.30
    ---> rank, ikp, iq =        0       3       7
    locmatsiz, ngk, matsiz, mbsiz:     318     108     426     426
    iblk, mstart, mend, size(minm) (Mb):       1       1      20          1.30
    ---> rank, ikp, iq =        0       3       8
    locmatsiz, ngk, matsiz, mbsiz:     318     108     426     426
    iblk, mstart, mend, size(minm) (Mb):       1       1      20          1.30
 
 CPU time for vxnl (seconds)                :         8.53
 CPU time for vnlmat (seconds)              :         0.02
 CPU time for scf_cycle (seconds)           :         4.83
 
 Total energy                               :      -570.72306530
 _______________________________________________________________
 Fermi energy                               :         0.20660109
 Kinetic energy                             :       581.35905934
 Coulomb energy                             :     -1119.57563577
 Non-local exchange energy                  :        -2.07077555
 Exchange energy                            :       -31.41479596
 Correlation energy                         :        -1.09169291
 Sum of eigenvalues                         :      -316.75411905
 Effective potential energy                 :      -885.63463066
 Coulomb potential energy                   :      -844.41397199
 xc potential energy                        :       -41.22065866
 Hartree energy                             :       187.41413353
 Electron-nuclear energy                    :     -1219.24223906
 Nuclear-nuclear energy                     :       -87.74753025
 Madelung energy                            :      -697.36864978
 Core-electron kinetic energy               :       570.66518796
 
 DOS at Fermi energy (states/Ha/cell)       :         0.00000000
 
 Electron charges :
     core                                   :        20.00000000
     core leakage                           :         0.00453459
     valence                                :         8.00000000
     interstitial                           :         3.97047634
     charge in muffin-tin spheres :
                  atom     1    Si          :        12.01476183
                  atom     2    Si          :        12.01476183
     total charge in muffin-tins            :        24.02952366
     total charge                           :        28.00000000
 
 Estimated fundamental gap                  :         0.07056854
        valence-band maximum at    1      0.0000  0.0000  0.0000
     conduction-band minimum at    3      0.0000  0.5000  0.5000
 
 Charge distance                   (target) :  0.201195E-05 ( 0.100000E-04)
 
++++++++++++++++++++++++++++++++++++++++++++++++++++++++++++++++++++++++++++++++
Convergence target is reached                                                   
++++++++++++++++++++++++++++++++++++++++++++++++++++++++++++++++++++++++++++++++
 
++++++++++++++++++++++++++++++++++++++++++++++++++++++++++++++++++++++++++++++++
+ Hybrids module stopped                                                        
++++++++++++++++++++++++++++++++++++++++++++++++++++++++++++++++++++++++++++++++
 
--------------------------------------------------------------------------------
Timings (seconds)                                                               
--------------------------------------------------------------------------------
 initialisation                        :         0.83
            - init0                    :         0.42
            - init1                    :         0.08
            - rhoinit                  :         0.01
            - potential initialisation :         0.28
            - others                   :         0.03
 Hamiltonian and overlap matrix set up :         0.60
            - hmlaan                   :         0.31
            - hmlalon                  :         0.02
            - hmllolon                 :         0.00
            - olpaan                   :         0.13
            - olpalon                  :         0.00
            - olplolon                 :         0.00
            - hmlistln                 :         0.02
            - olpistln                 :         0.08
 first-variational secular equation    :         0.36
 charge density calculation            :         0.99
 potential calculation                 :        26.80
 muffin-tin manipulations              :         4.78
 APW matching                          :         0.42
 disk reads/writes                     :         0.54
 mixing efforts                        :         0.04
 sum                                   :        35.35
 Dirac eqn solver                      :         0.28
 Rel. Schroedinger eqn solver          :         0.22
 Total time spent in radial solvers    :         0.50
 
 Total time spent (seconds)            :        96.57
 
================================================================================
EXCITING NITROGEN-14 stopped                                                    
================================================================================
